
     Program PWSCF v.7.5 starts on 22Mar2026 at 14:11:54 

     This program is part of the open-source Quantum ESPRESSO suite
     for quantum simulation of materials; please cite
         "P. Giannozzi et al., J. Phys.:Condens. Matter 21 395502 (2009);
         "P. Giannozzi et al., J. Phys.:Condens. Matter 29 465901 (2017);
         "P. Giannozzi et al., J. Chem. Phys. 152 154105 (2020);
          URL http://www.quantum-espresso.org", 
     in publications or presentations arising from this work. More details at
     http://www.quantum-espresso.org/quote

     Parallel version (MPI), running on    32 processors

     MPI processes distributed on     1 nodes
     10769 MiB available memory on the printing compute node when the environment starts

     Waiting for input...
     Reading input from standard input

     Current dimensions of program PWSCF are:
     Max number of different atomic species (ntypx) = 10
     Max number of k-points (npk) =  40000
     Max angular momentum in pseudopotentials (lmaxx) =  4
     file Sr.pbe-spn-kjpaw_psl.1.0.0.UPF: wavefunction(s)  4P renormalized
     file Ti.pbe-spn-kjpaw_psl.1.0.0.UPF: wavefunction(s)  3S 3P 3D renormalized
     file O.pbe-n-kjpaw_psl.0.1-FCH.UPF: wavefunction(s)  2S renormalized
     file O.pbe-n-kjpaw_psl.0.1.UPF: wavefunction(s)  2P renormalized

     Exact exchange band parallelism type set to band_pairs


     K-points division:     npool     =      32
     Subspace diagonalization in iterative solution of the eigenvalue problem:
     a serial algorithm will be used

     Message from routine divide_et_impera:
     suboptimal parallelization: some nodes have no k-points

     G-vector sticks info
     --------------------
     sticks:   dense  smooth     PW     G-vecs:    dense   smooth      PW
     Sum        2593     949    277                99873    22119    3407

     Using Slab Decomposition



     bravais-lattice index     =            1
     lattice parameter (alat)  =       7.3800  a.u.
     unit-cell volume          =     401.9473 (a.u.)^3
     number of atoms/cell      =            5
     number of atomic types    =            4
     number of electrons       =        40.00
     number of Kohn-Sham states=           30
     kinetic-energy cutoff     =      55.0000  Ry
     charge density cutoff     =     600.0000  Ry
     scf convergence threshold =      1.0E-08
     mixing beta               =       0.3000
     number of iterations used =            8  plain     mixing
     Exchange-correlation= SLA  PW   PBX  PBC
                           (   1   4   3   4   0   0   0)

     celldm(1)=   7.380000  celldm(2)=   0.000000  celldm(3)=   0.000000
     celldm(4)=   0.000000  celldm(5)=   0.000000  celldm(6)=   0.000000

     crystal axes: (cart. coord. in units of alat)
               a(1) = (   1.000000   0.000000   0.000000 )  
               a(2) = (   0.000000   1.000000   0.000000 )  
               a(3) = (   0.000000   0.000000   1.000000 )  

     reciprocal axes: (cart. coord. in units 2 pi/alat)
               b(1) = (  1.000000  0.000000  0.000000 )  
               b(2) = (  0.000000  1.000000  0.000000 )  
               b(3) = (  0.000000  0.000000  1.000000 )  


     PseudoPot. # 1 for Sr read from file:
     /path/to/xspectra-tutorial/SrTiO3/O_Kedge_FCH/../pseudo/Sr.pbe-spn-kjpaw_psl.1.0.0.UPF
     MD5 check sum: a3c6d0287e6b0f325c5350c23079ab60
     Pseudo is Projector augmented-wave + core cor, Zval = 10.0
     Generated using &quot;atomic&quot; code by A. Dal Corso  v.6.2.2
     Shape of augmentation charge: PSQ
     Using radial grid of 1221 points,  6 beta functions with: 
                l(1) =   0
                l(2) =   0
                l(3) =   1
                l(4) =   1
                l(5) =   2
                l(6) =   2
     Q(r) pseudized with 0 coefficients 


     PseudoPot. # 2 for Ti read from file:
     /path/to/xspectra-tutorial/SrTiO3/O_Kedge_FCH/../pseudo/Ti.pbe-spn-kjpaw_psl.1.0.0.UPF
     MD5 check sum: 01f69b0d8ba4438b2e03ac6ea4af1c0b
     Pseudo is Projector augmented-wave + core cor, Zval = 12.0
     Generated using &quot;atomic&quot; code by A. Dal Corso  v.6.2.2
     Shape of augmentation charge: PSQ
     Using radial grid of 1177 points,  6 beta functions with: 
                l(1) =   0
                l(2) =   0
                l(3) =   1
                l(4) =   1
                l(5) =   2
                l(6) =   2
     Q(r) pseudized with 0 coefficients 


     PseudoPot. # 3 for O  read from file:
     /path/to/xspectra-tutorial/SrTiO3/O_Kedge_FCH/../pseudo/O.pbe-n-kjpaw_psl.0.1-FCH.UPF
     MD5 check sum: 15f5f308e76f0dbb907547dfb5c044b5
     Pseudo is Projector augmented-wave + core cor, Zval =  7.0
     Generated using 'atomic' code by A. Dal Corso  v.7.5
     Shape of augmentation charge: BESSEL
     Using radial grid of 1095 points,  4 beta functions with: 
                l(1) =   0
                l(2) =   0
                l(3) =   1
                l(4) =   1
     Q(r) pseudized with 0 coefficients 


     PseudoPot. # 4 for O  read from file:
     /path/to/xspectra-tutorial/SrTiO3/O_Kedge_FCH/../pseudo/O.pbe-n-kjpaw_psl.0.1.UPF
     MD5 check sum: 833c495a5d0f9b75bf046115549bffff
     Pseudo is Projector augmented-wave + core cor, Zval =  6.0
     Generated using &quot;atomic&quot; code by A. Dal Corso  v.6.3
     Shape of augmentation charge: BESSEL
     Using radial grid of 1095 points,  4 beta functions with: 
                l(1) =   0
                l(2) =   0
                l(3) =   1
                l(4) =   1
     Q(r) pseudized with 0 coefficients 


     atomic species   valence    mass     pseudopotential
     Sr               10.00    87.62000     Sr( 1.00)
     Ti               12.00    47.86700     Ti( 1.00)
     Oh                7.00    15.99900     O ( 1.00)
     O                 6.00    15.99900     O ( 1.00)

     16 Sym. Ops., with inversion, found



   Cartesian axes

     site n.     atom                  positions (alat units)
         1        Sr     tau(   1) = (   0.0000000   0.0000000   0.0000000  )
         2        Ti     tau(   2) = (   0.5000000   0.5000000   0.5000000  )
         3        Oh     tau(   3) = (   0.5000000   0.5000000   0.0000000  )
         4        O      tau(   4) = (   0.5000000   0.0000000   0.5000000  )
         5        O      tau(   5) = (   0.0000000   0.5000000   0.5000000  )

     number of k points=     6  Methfessel-Paxton smearing, width (Ry)=  0.0100
                       cart. coord. in units 2pi/alat
        k(    1) = (   0.1250000   0.1250000   0.1250000), wk =   0.2500000
        k(    2) = (   0.1250000   0.1250000   0.3750000), wk =   0.2500000
        k(    3) = (   0.1250000   0.3750000   0.3750000), wk =   0.5000000
        k(    4) = (   0.3750000   0.3750000   0.3750000), wk =   0.2500000
        k(    5) = (   0.1250000   0.3750000   0.1250000), wk =   0.5000000
        k(    6) = (   0.3750000   0.3750000   0.1250000), wk =   0.2500000

     Dense  grid:    99873 G-vectors     FFT dimensions: (  60,  60,  60)

     Smooth grid:    22119 G-vectors     FFT dimensions: (  36,  36,  36)

     Estimated max dynamical RAM per process >      87.00 MB

     Estimated total dynamical RAM >       1.98 GB

     Check: negative core charge=   -0.000002

     Initial potential from superposition of free atoms

     starting charge      39.9909, renormalised to      40.0000
     Starting wfcs are   30 randomized atomic wfcs
     Checking if some PAW data can be deallocated... 

     total cpu time spent up to now is        2.2 secs

     Self-consistent Calculation

     iteration #  1     ecut=    55.00 Ry     beta= 0.30
     Davidson diagonalization with overlap
     ethr =  1.00E-02,  avg # of iterations =  6.2

     total cpu time spent up to now is        2.5 secs

     total energy              =    -580.43897777 Ry
     estimated scf accuracy    <       2.26437336 Ry

     iteration #  2     ecut=    55.00 Ry     beta= 0.30
     Davidson diagonalization with overlap
     ethr =  5.66E-03,  avg # of iterations =  2.0

     total cpu time spent up to now is        2.7 secs

     total energy              =    -580.69813316 Ry
     estimated scf accuracy    <       0.31352531 Ry

     iteration #  3     ecut=    55.00 Ry     beta= 0.30
     Davidson diagonalization with overlap
     ethr =  7.84E-04,  avg # of iterations =  2.0

     total cpu time spent up to now is        3.0 secs

     total energy              =    -580.74650578 Ry
     estimated scf accuracy    <       0.09046789 Ry

     iteration #  4     ecut=    55.00 Ry     beta= 0.30
     Davidson diagonalization with overlap
     ethr =  2.26E-04,  avg # of iterations =  3.0

     total cpu time spent up to now is        3.3 secs

     total energy              =    -580.75133244 Ry
     estimated scf accuracy    <       0.01907721 Ry

     iteration #  5     ecut=    55.00 Ry     beta= 0.30
     Davidson diagonalization with overlap
     ethr =  4.77E-05,  avg # of iterations =  4.3

     total cpu time spent up to now is        3.6 secs

     total energy              =    -580.75268785 Ry
     estimated scf accuracy    <       0.00553154 Ry

     iteration #  6     ecut=    55.00 Ry     beta= 0.30
     Davidson diagonalization with overlap
     ethr =  1.38E-05,  avg # of iterations =  2.7

     total cpu time spent up to now is        3.9 secs

     total energy              =    -580.75311252 Ry
     estimated scf accuracy    <       0.00047141 Ry

     iteration #  7     ecut=    55.00 Ry     beta= 0.30
     Davidson diagonalization with overlap
     ethr =  1.18E-06,  avg # of iterations =  5.8

     total cpu time spent up to now is        4.1 secs

     total energy              =    -580.75311985 Ry
     estimated scf accuracy    <       0.00078736 Ry

     iteration #  8     ecut=    55.00 Ry     beta= 0.30
     Davidson diagonalization with overlap
     ethr =  1.18E-06,  avg # of iterations =  2.8

     total cpu time spent up to now is        4.4 secs

     total energy              =    -580.75334721 Ry
     estimated scf accuracy    <       0.00003514 Ry

     iteration #  9     ecut=    55.00 Ry     beta= 0.30
     Davidson diagonalization with overlap
     ethr =  8.78E-08,  avg # of iterations =  1.8

     total cpu time spent up to now is        4.6 secs

     total energy              =    -580.75334416 Ry
     estimated scf accuracy    <       0.00001088 Ry

     iteration # 10     ecut=    55.00 Ry     beta= 0.30
     Davidson diagonalization with overlap
     ethr =  2.72E-08,  avg # of iterations =  2.0

     total cpu time spent up to now is        4.9 secs

     total energy              =    -580.75334631 Ry
     estimated scf accuracy    <       0.00000008 Ry

     iteration # 11     ecut=    55.00 Ry     beta= 0.30
     Davidson diagonalization with overlap
     ethr =  1.92E-10,  avg # of iterations =  4.0

     total cpu time spent up to now is        5.1 secs

     total energy              =    -580.75334638 Ry
     estimated scf accuracy    <       0.00000003 Ry

     iteration # 12     ecut=    55.00 Ry     beta= 0.30
     Davidson diagonalization with overlap
     ethr =  6.71E-11,  avg # of iterations =  2.0

     total cpu time spent up to now is        5.4 secs

     End of self-consistent calculation

          k = 0.1250 0.1250 0.1250 (  2788 PWs)   bands (ev):

   -46.9524 -23.4483 -23.0699 -23.0676 -22.0364 -10.9751  -6.7882  -6.2141
    -4.0860  -4.0709  -3.8396   3.6120   4.2334   4.3957   7.5587   7.7133
     8.3500   8.6070   8.8429   9.4625  11.9337  12.0373  12.3778  14.0003
    14.8260  16.4991  16.5934  17.4732  18.8897  19.2695

          k = 0.1250 0.1250 0.3750 (  2757 PWs)   bands (ev):

   -46.9511 -23.5244 -23.0658 -23.0653 -22.0180 -10.5483  -7.0708  -6.1500
    -4.1203  -4.0579  -3.5757   2.4834   3.9893   4.1841   7.3073   7.4617
     7.9155   8.3975   8.8151   9.3108  12.4576  12.5434  12.5719  14.8220
    15.2138  17.6585  17.7430  18.7705  19.0681  19.6998

          k = 0.1250 0.3750 0.3750 (  2777 PWs)   bands (ev):

   -46.9502 -23.5185 -23.1122 -23.0636 -22.0069 -10.5807  -6.6164  -6.1090
    -4.1439  -4.0689  -3.7030   2.4716   3.6534   4.0048   6.0602   7.3171
     8.0307   8.1946   8.4844   9.1365  12.5704  13.4265  13.5319  15.0772
    16.5928  18.0845  18.5216  18.7770  19.3940  19.8269

          k = 0.3750 0.3750 0.3750 (  2755 PWs)   bands (ev):

   -46.9492 -23.5155 -23.1094 -23.1088 -21.9947 -10.5449  -6.1578  -5.9642
    -4.2775  -4.2634  -3.9644   2.4777   3.8933   4.0661   6.0235   6.1774
     6.7336   8.3039   8.3504  10.0221  13.4515  13.5186  14.0424  16.0228
    17.5480  17.5628  18.0749  18.2347  19.7648  19.8049

          k = 0.1250 0.3750 0.1250 (  2757 PWs)   bands (ev):

   -46.9514 -23.4456 -23.1195 -23.0659 -22.0153 -11.0059  -6.6539  -6.0477
    -4.0621  -3.9119  -3.7982   3.6164   4.0779   4.2451   6.1000   7.3252
     7.9107   8.0622   8.3135   9.1050  12.0396  13.2138  13.4804  14.1288
    16.2205  17.1994  18.1972  18.7212  19.0219  19.2585

          k = 0.3750 0.3750 0.1250 (  2777 PWs)   bands (ev):

   -46.9505 -23.4437 -23.1137 -23.1114 -22.0057 -10.9652  -6.2917  -6.2113
    -3.9912  -3.9214  -3.7851   3.6616   4.2423   4.4193   6.0196   6.1941
     6.2674   7.6403   7.6622  10.0381  13.1948  13.2775  13.9157  14.5880
    17.6288  18.0835  18.8021  18.9640  19.1137  20.0012

     the Fermi energy is    11.0194 ev

!    total energy              =    -580.75334640 Ry
     total all-electron energy =     -8480.356404 Ry
     estimated scf accuracy    <          8.3E-10 Ry
     smearing contrib. (-TS)   =       0.00000000 Ry
     internal energy E=F+TS    =    -580.75334640 Ry

     The total energy is F=E-TS. E is the sum of the following terms:
     one-electron contribution =     -85.15607855 Ry
     hartree contribution      =      66.23999832 Ry
     xc contribution           =     -60.55790484 Ry
     ewald contribution        =    -221.27190968 Ry
     one-center paw contrib.   =    -280.00745165 Ry

     convergence has been achieved in  12 iterations

     Writing all to output data dir ./tmp/SrTiO3_OK_FCH.save/ :
     XML data file, charge density, pseudopotentials, collected wavefunctions

     init_run     :      1.66s CPU      1.76s WALL (       1 calls)
     electrons    :      2.99s CPU      3.18s WALL (       1 calls)

     Called by init_run:
     wfcinit      :      0.02s CPU      0.02s WALL (       1 calls)
     potinit      :      0.48s CPU      0.52s WALL (       1 calls)
     hinit0       :      1.06s CPU      1.11s WALL (       1 calls)

     Called by electrons:
     c_bands      :      0.56s CPU      0.57s WALL (      12 calls)
     sum_band     :      0.52s CPU      0.54s WALL (      12 calls)
     v_of_rho     :      0.86s CPU      1.02s WALL (      13 calls)
     newd         :      0.30s CPU      0.31s WALL (      13 calls)
     PAW_pot      :      0.78s CPU      0.80s WALL (      13 calls)
     mix_rho      :      0.07s CPU      0.07s WALL (      12 calls)

     Called by c_bands:
     init_us_2    :      0.03s CPU      0.03s WALL (      25 calls)
     cegterg      :      0.47s CPU      0.48s WALL (      12 calls)

     Called by *egterg:
     cdiaghg      :      0.03s CPU      0.03s WALL (      46 calls)
     h_psi        :      0.34s CPU      0.34s WALL (      47 calls)
     s_psi        :      0.02s CPU      0.02s WALL (      47 calls)
     g_psi        :      0.00s CPU      0.00s WALL (      34 calls)

     Called by h_psi:
     h_psi:calbec :      0.02s CPU      0.02s WALL (      47 calls)
     vloc_psi     :      0.29s CPU      0.29s WALL (      47 calls)
                                        0.00s GPU  (      47 calls)
     add_vuspsi   :      0.02s CPU      0.02s WALL (      47 calls)

     General routines
     calbec       :      0.03s CPU      0.03s WALL (      59 calls)
     fft          :      0.13s CPU      0.18s WALL (     167 calls)
     ffts         :      0.00s CPU      0.00s WALL (      25 calls)
     fftw         :      0.28s CPU      0.28s WALL (    2110 calls)
     interpolate  :      0.02s CPU      0.02s WALL (      13 calls)

     Parallel routines

     PWSCF        :      5.06s CPU      5.38s WALL


   This run was terminated on:  14:12: 0  22Mar2026            

=------------------------------------------------------------------------------=
   JOB DONE.
=------------------------------------------------------------------------------=
Note: The following floating-point exceptions are signalling: IEEE_DIVIDE_BY_ZERO
Note: The following floating-point exceptions are signalling: IEEE_DIVIDE_BY_ZERO
Note: The following floating-point exceptions are signalling: IEEE_DIVIDE_BY_ZERO IEEE_UNDERFLOW_FLAG IEEE_DENORMAL
Note: The following floating-point exceptions are signalling: IEEE_DIVIDE_BY_ZERO
Note: The following floating-point exceptions are signalling: IEEE_DIVIDE_BY_ZERO
Note: The following floating-point exceptions are signalling: IEEE_DIVIDE_BY_ZERO
