
     Program PWSCF v.7.5 starts on 22Mar2026 at 14:12:14 

     This program is part of the open-source Quantum ESPRESSO suite
     for quantum simulation of materials; please cite
         "P. Giannozzi et al., J. Phys.:Condens. Matter 21 395502 (2009);
         "P. Giannozzi et al., J. Phys.:Condens. Matter 29 465901 (2017);
         "P. Giannozzi et al., J. Chem. Phys. 152 154105 (2020);
          URL http://www.quantum-espresso.org", 
     in publications or presentations arising from this work. More details at
     http://www.quantum-espresso.org/quote

     Parallel version (MPI), running on    32 processors

     MPI processes distributed on     1 nodes
     12320 MiB available memory on the printing compute node when the environment starts

     Waiting for input...
     Reading input from standard input

     Current dimensions of program PWSCF are:
     Max number of different atomic species (ntypx) = 10
     Max number of k-points (npk) =  40000
     Max angular momentum in pseudopotentials (lmaxx) =  4
     file Sr.pbe-spn-kjpaw_psl.1.0.0.UPF: wavefunction(s)  4P renormalized
     file Ti.pbe-spn-kjpaw_psl.1.0.0-HCH.UPF: wavefunction(s)  3S 4S 3P 3D renormalized
     file O.pbe-n-kjpaw_psl.0.1.UPF: wavefunction(s)  2P renormalized

     Exact exchange band parallelism type set to band_pairs


     K-points division:     npool     =      32
     Subspace diagonalization in iterative solution of the eigenvalue problem:
     a serial algorithm will be used

     Message from routine divide_et_impera:
     suboptimal parallelization: some nodes have no k-points

     G-vector sticks info
     --------------------
     sticks:   dense  smooth     PW     G-vecs:    dense   smooth      PW
     Sum        2593     949    277                99873    22119    3407

     Using Slab Decomposition



     bravais-lattice index     =            1
     lattice parameter (alat)  =       7.3800  a.u.
     unit-cell volume          =     401.9473 (a.u.)^3
     number of atoms/cell      =            5
     number of atomic types    =            3
     number of electrons       =        40.00
     number of Kohn-Sham states=           30
     kinetic-energy cutoff     =      55.0000  Ry
     charge density cutoff     =     600.0000  Ry
     scf convergence threshold =      1.0E-08
     mixing beta               =       0.3000
     number of iterations used =            8  plain     mixing
     Exchange-correlation= SLA  PW   PBX  PBC
                           (   1   4   3   4   0   0   0)

     celldm(1)=   7.380000  celldm(2)=   0.000000  celldm(3)=   0.000000
     celldm(4)=   0.000000  celldm(5)=   0.000000  celldm(6)=   0.000000

     crystal axes: (cart. coord. in units of alat)
               a(1) = (   1.000000   0.000000   0.000000 )  
               a(2) = (   0.000000   1.000000   0.000000 )  
               a(3) = (   0.000000   0.000000   1.000000 )  

     reciprocal axes: (cart. coord. in units 2 pi/alat)
               b(1) = (  1.000000  0.000000  0.000000 )  
               b(2) = (  0.000000  1.000000  0.000000 )  
               b(3) = (  0.000000  0.000000  1.000000 )  


     PseudoPot. # 1 for Sr read from file:
     /path/to/xspectra-tutorial/SrTiO3/Ti_Ledge_HCH/../pseudo/Sr.pbe-spn-kjpaw_psl.1.0.0.UPF
     MD5 check sum: a3c6d0287e6b0f325c5350c23079ab60
     Pseudo is Projector augmented-wave + core cor, Zval = 10.0
     Generated using &quot;atomic&quot; code by A. Dal Corso  v.6.2.2
     Shape of augmentation charge: PSQ
     Using radial grid of 1221 points,  6 beta functions with: 
                l(1) =   0
                l(2) =   0
                l(3) =   1
                l(4) =   1
                l(5) =   2
                l(6) =   2
     Q(r) pseudized with 0 coefficients 


     PseudoPot. # 2 for Ti read from file:
     /path/to/xspectra-tutorial/SrTiO3/Ti_Ledge_HCH/../pseudo/Ti.pbe-spn-kjpaw_psl.1.0.0-HCH.UPF
     MD5 check sum: 00aea6dbf1f88ca21253bd624058d280
     Pseudo is Projector augmented-wave + core cor, Zval = 12.5
     Generated using 'atomic' code by A. Dal Corso  v.7.5
     Shape of augmentation charge: BESSEL
     Using radial grid of 1177 points,  6 beta functions with: 
                l(1) =   0
                l(2) =   0
                l(3) =   1
                l(4) =   1
                l(5) =   2
                l(6) =   2
     Q(r) pseudized with 0 coefficients 


     PseudoPot. # 3 for O  read from file:
     /path/to/xspectra-tutorial/SrTiO3/Ti_Ledge_HCH/../pseudo/O.pbe-n-kjpaw_psl.0.1.UPF
     MD5 check sum: 833c495a5d0f9b75bf046115549bffff
     Pseudo is Projector augmented-wave + core cor, Zval =  6.0
     Generated using &quot;atomic&quot; code by A. Dal Corso  v.6.3
     Shape of augmentation charge: BESSEL
     Using radial grid of 1095 points,  4 beta functions with: 
                l(1) =   0
                l(2) =   0
                l(3) =   1
                l(4) =   1
     Q(r) pseudized with 0 coefficients 


     atomic species   valence    mass     pseudopotential
     Sr               10.00    87.62000     Sr( 1.00)
     Tih              12.50    47.86700     Ti( 1.00)
     O                 6.00    15.99900     O ( 1.00)

     48 Sym. Ops., with inversion, found



   Cartesian axes

     site n.     atom                  positions (alat units)
         1        Sr     tau(   1) = (   0.0000000   0.0000000   0.0000000  )
         2        Tih    tau(   2) = (   0.5000000   0.5000000   0.5000000  )
         3        O      tau(   3) = (   0.5000000   0.5000000   0.0000000  )
         4        O      tau(   4) = (   0.5000000   0.0000000   0.5000000  )
         5        O      tau(   5) = (   0.0000000   0.5000000   0.5000000  )

     number of k points=     4  Methfessel-Paxton smearing, width (Ry)=  0.0100
                       cart. coord. in units 2pi/alat
        k(    1) = (   0.1250000   0.1250000   0.1250000), wk =   0.2500000
        k(    2) = (   0.1250000   0.1250000   0.3750000), wk =   0.7500000
        k(    3) = (   0.1250000   0.3750000   0.3750000), wk =   0.7500000
        k(    4) = (   0.3750000   0.3750000   0.3750000), wk =   0.2500000

     Dense  grid:    99873 G-vectors     FFT dimensions: (  60,  60,  60)

     Smooth grid:    22119 G-vectors     FFT dimensions: (  36,  36,  36)

     Estimated max dynamical RAM per process >      82.04 MB

     Estimated total dynamical RAM >       1.83 GB

     Initial potential from superposition of free atoms

     starting charge      39.9922, renormalised to      40.0000
     Starting wfcs are   30 randomized atomic wfcs
     Checking if some PAW data can be deallocated... 

     total cpu time spent up to now is        2.2 secs

     Self-consistent Calculation

     iteration #  1     ecut=    55.00 Ry     beta= 0.30
     Davidson diagonalization with overlap
     ethr =  1.00E-02,  avg # of iterations =  6.5

     total cpu time spent up to now is        2.6 secs

     total energy              =    -578.79764944 Ry
     estimated scf accuracy    <       1.53220376 Ry

     iteration #  2     ecut=    55.00 Ry     beta= 0.30
     Davidson diagonalization with overlap
     ethr =  3.83E-03,  avg # of iterations =  2.0

     total cpu time spent up to now is        2.9 secs

     total energy              =    -578.83871877 Ry
     estimated scf accuracy    <       2.01204077 Ry

     iteration #  3     ecut=    55.00 Ry     beta= 0.30
     Davidson diagonalization with overlap
     ethr =  3.83E-03,  avg # of iterations =  1.5

     total cpu time spent up to now is        3.2 secs

     total energy              =    -579.20921036 Ry
     estimated scf accuracy    <       0.21030668 Ry

     iteration #  4     ecut=    55.00 Ry     beta= 0.30
     Davidson diagonalization with overlap
     ethr =  5.26E-04,  avg # of iterations =  5.0

     total cpu time spent up to now is        3.6 secs

     total energy              =    -579.21649258 Ry
     estimated scf accuracy    <       0.02590654 Ry

     iteration #  5     ecut=    55.00 Ry     beta= 0.30
     Davidson diagonalization with overlap
     ethr =  6.48E-05,  avg # of iterations =  4.8

     total cpu time spent up to now is        3.9 secs

     total energy              =    -579.22116557 Ry
     estimated scf accuracy    <       0.01436231 Ry

     iteration #  6     ecut=    55.00 Ry     beta= 0.30
     Davidson diagonalization with overlap
     ethr =  3.59E-05,  avg # of iterations =  1.2

     total cpu time spent up to now is        4.2 secs

     total energy              =    -579.22338257 Ry
     estimated scf accuracy    <       0.00015514 Ry

     iteration #  7     ecut=    55.00 Ry     beta= 0.30
     Davidson diagonalization with overlap
     ethr =  3.88E-07,  avg # of iterations = 12.8

     total cpu time spent up to now is        4.5 secs

     total energy              =    -579.22345161 Ry
     estimated scf accuracy    <       0.00072853 Ry

     iteration #  8     ecut=    55.00 Ry     beta= 0.30
     Davidson diagonalization with overlap
     ethr =  3.88E-07,  avg # of iterations =  1.2

     total cpu time spent up to now is        4.8 secs

     total energy              =    -579.22345948 Ry
     estimated scf accuracy    <       0.00009186 Ry

     iteration #  9     ecut=    55.00 Ry     beta= 0.30
     Davidson diagonalization with overlap
     ethr =  2.30E-07,  avg # of iterations =  1.2

     total cpu time spent up to now is        5.1 secs

     total energy              =    -579.22347900 Ry
     estimated scf accuracy    <       0.00001164 Ry

     iteration # 10     ecut=    55.00 Ry     beta= 0.30
     Davidson diagonalization with overlap
     ethr =  2.91E-08,  avg # of iterations =  1.5

     total cpu time spent up to now is        5.3 secs

     total energy              =    -579.22347934 Ry
     estimated scf accuracy    <       0.00000213 Ry

     iteration # 11     ecut=    55.00 Ry     beta= 0.30
     Davidson diagonalization with overlap
     ethr =  5.33E-09,  avg # of iterations =  2.2

     total cpu time spent up to now is        5.5 secs

     total energy              =    -579.22347974 Ry
     estimated scf accuracy    <       0.00000003 Ry

     iteration # 12     ecut=    55.00 Ry     beta= 0.30
     Davidson diagonalization with overlap
     ethr =  7.38E-11,  avg # of iterations =  5.2

     total cpu time spent up to now is        5.8 secs

     total energy              =    -579.22347978 Ry
     estimated scf accuracy    <       0.00000002 Ry

     iteration # 13     ecut=    55.00 Ry     beta= 0.30
     Davidson diagonalization with overlap
     ethr =  5.60E-11,  avg # of iterations =  2.0

     total cpu time spent up to now is        6.0 secs

     total energy              =    -579.22347979 Ry
     estimated scf accuracy    <       0.00000002 Ry

     iteration # 14     ecut=    55.00 Ry     beta= 0.30
     Davidson diagonalization with overlap
     ethr =  5.60E-11,  avg # of iterations =  1.0

     total cpu time spent up to now is        6.2 secs

     total energy              =    -579.22347979 Ry
     estimated scf accuracy    <       0.00000001 Ry

     iteration # 15     ecut=    55.00 Ry     beta= 0.30
     Davidson diagonalization with overlap
     ethr =  3.21E-11,  avg # of iterations =  1.0

     total cpu time spent up to now is        6.4 secs

     End of self-consistent calculation

          k = 0.1250 0.1250 0.1250 (  2788 PWs)   bands (ev):

   -49.0951 -25.1796 -25.1787 -25.1787 -22.3416  -7.6505  -6.7329  -6.7329
    -4.3235  -4.3235  -4.1900   6.4142   6.7012   6.7012   7.8238   7.8238
     8.3620   8.7593   8.9061   8.9061  11.0716  11.1712  11.1712  13.3343
    13.3343  16.4691  16.4691  17.2433  18.8512  18.8512

          k = 0.1250 0.1250 0.3750 (  2757 PWs)   bands (ev):

   -49.0943 -25.2133 -25.1774 -25.1772 -22.3243  -7.6389  -6.6757  -6.6138
    -4.3483  -4.2233  -3.9979   5.3918   6.3894   6.7134   6.8254   6.9771
     8.0854   8.4334   8.5904   8.7030  11.1869  12.1537  12.1784  13.3196
    14.9852  17.5558  17.7455  18.6578  18.9100  19.3077

          k = 0.1250 0.3750 0.3750 (  2777 PWs)   bands (ev):

   -49.0936 -25.2110 -25.2103 -25.1759 -22.3116  -7.2488  -6.7462  -6.6203
    -4.3388  -4.1912  -4.0832   5.3064   5.4782   5.6253   6.6020   6.7837
     7.4533   8.4642   8.5739   9.4457  12.1698  12.2228  12.5070  14.0635
    16.1159  18.1004  18.4334  18.9026  19.1027  19.7434

          k = 0.3750 0.3750 0.3750 (  2755 PWs)   bands (ev):

   -49.0928 -25.2090 -25.2087 -25.2087 -22.2987  -6.8252  -6.5355  -6.5355
    -4.5069  -4.5069  -4.3051   5.3520   5.4952   5.4952   5.9460   6.1678
     6.1678   9.3521   9.3521   9.5496  12.6119  12.6462  12.6462  16.0842
    16.0842  17.7305  17.8445  17.8445  19.6298  19.6298

     the Fermi energy is    10.2023 ev

!    total energy              =    -579.22347979 Ry
     total all-electron energy =     -8502.896927 Ry
     estimated scf accuracy    <          5.2E-09 Ry
     smearing contrib. (-TS)   =       0.00000000 Ry
     internal energy E=F+TS    =    -579.22347979 Ry

     The total energy is F=E-TS. E is the sum of the following terms:
     one-electron contribution =     -82.77332270 Ry
     hartree contribution      =      66.09084190 Ry
     xc contribution           =     -56.23542021 Ry
     ewald contribution        =    -218.51917870 Ry
     one-center paw contrib.   =    -287.78640008 Ry

     convergence has been achieved in  15 iterations

     Writing all to output data dir ./tmp/SrTiO3_TiL_HCH.save/ :
     XML data file, charge density, pseudopotentials, collected wavefunctions

     init_run     :      1.74s CPU      1.83s WALL (       1 calls)
     electrons    :      4.07s CPU      4.23s WALL (       1 calls)

     Called by init_run:
     wfcinit      :      0.02s CPU      0.02s WALL (       1 calls)
     potinit      :      0.73s CPU      0.76s WALL (       1 calls)
     hinit0       :      0.87s CPU      0.91s WALL (       1 calls)

     Called by electrons:
     c_bands      :      0.77s CPU      0.77s WALL (      15 calls)
     sum_band     :      0.62s CPU      0.65s WALL (      15 calls)
     v_of_rho     :      0.78s CPU      0.90s WALL (      16 calls)
     newd         :      0.39s CPU      0.39s WALL (      16 calls)
     PAW_pot      :      1.46s CPU      1.49s WALL (      16 calls)
     mix_rho      :      0.08s CPU      0.08s WALL (      15 calls)

     Called by c_bands:
     init_us_2    :      0.03s CPU      0.03s WALL (      31 calls)
     cegterg      :      0.47s CPU      0.47s WALL (      15 calls)

     Called by *egterg:
     cdiaghg      :      0.03s CPU      0.03s WALL (      68 calls)
     h_psi        :      0.32s CPU      0.32s WALL (      69 calls)
     s_psi        :      0.02s CPU      0.02s WALL (      69 calls)
     g_psi        :      0.00s CPU      0.00s WALL (      53 calls)

     Called by h_psi:
     h_psi:calbec :      0.02s CPU      0.02s WALL (      69 calls)
     vloc_psi     :      0.27s CPU      0.27s WALL (      69 calls)
                                        0.00s GPU  (      69 calls)
     add_vuspsi   :      0.02s CPU      0.02s WALL (      69 calls)

     General routines
     calbec       :      0.03s CPU      0.03s WALL (      84 calls)
     fft          :      0.13s CPU      0.16s WALL (     206 calls)
     ffts         :      0.00s CPU      0.00s WALL (      31 calls)
     fftw         :      0.26s CPU      0.26s WALL (    2634 calls)
     interpolate  :      0.02s CPU      0.02s WALL (      16 calls)

     Parallel routines

     PWSCF        :      6.17s CPU      6.44s WALL


   This run was terminated on:  14:12:20  22Mar2026            

=------------------------------------------------------------------------------=
   JOB DONE.
=------------------------------------------------------------------------------=
Note: The following floating-point exceptions are signalling: IEEE_UNDERFLOW_FLAG IEEE_DENORMAL
Note: The following floating-point exceptions are signalling: IEEE_UNDERFLOW_FLAG IEEE_DENORMAL
Note: The following floating-point exceptions are signalling: IEEE_UNDERFLOW_FLAG IEEE_DENORMAL
Note: The following floating-point exceptions are signalling: IEEE_UNDERFLOW_FLAG IEEE_DENORMAL
Note: The following floating-point exceptions are signalling: IEEE_DIVIDE_BY_ZERO IEEE_UNDERFLOW_FLAG IEEE_DENORMAL
Note: The following floating-point exceptions are signalling: IEEE_UNDERFLOW_FLAG IEEE_DENORMAL
Note: The following floating-point exceptions are signalling: IEEE_UNDERFLOW_FLAG IEEE_DENORMAL
Note: The following floating-point exceptions are signalling: IEEE_UNDERFLOW_FLAG IEEE_DENORMAL
Note: The following floating-point exceptions are signalling: IEEE_UNDERFLOW_FLAG IEEE_DENORMAL
Note: The following floating-point exceptions are signalling: IEEE_UNDERFLOW_FLAG IEEE_DENORMAL
Note: The following floating-point exceptions are signalling: IEEE_UNDERFLOW_FLAG IEEE_DENORMAL
Note: The following floating-point exceptions are signalling: IEEE_UNDERFLOW_FLAG IEEE_DENORMAL
Note: The following floating-point exceptions are signalling: IEEE_UNDERFLOW_FLAG IEEE_DENORMAL
Note: The following floating-point exceptions are signalling: IEEE_UNDERFLOW_FLAG IEEE_DENORMAL
Note: The following floating-point exceptions are signalling: IEEE_DIVIDE_BY_ZERO IEEE_UNDERFLOW_FLAG IEEE_DENORMAL
Note: The following floating-point exceptions are signalling: IEEE_UNDERFLOW_FLAG IEEE_DENORMAL
Note: The following floating-point exceptions are signalling: IEEE_UNDERFLOW_FLAG IEEE_DENORMAL
Note: The following floating-point exceptions are signalling: IEEE_DIVIDE_BY_ZERO IEEE_UNDERFLOW_FLAG IEEE_DENORMAL
Note: The following floating-point exceptions are signalling: IEEE_UNDERFLOW_FLAG IEEE_DENORMAL
Note: The following floating-point exceptions are signalling: IEEE_UNDERFLOW_FLAG IEEE_DENORMAL
Note: The following floating-point exceptions are signalling: IEEE_UNDERFLOW_FLAG IEEE_DENORMAL
Note: The following floating-point exceptions are signalling: IEEE_UNDERFLOW_FLAG IEEE_DENORMAL
Note: The following floating-point exceptions are signalling: IEEE_UNDERFLOW_FLAG IEEE_DENORMAL
Note: The following floating-point exceptions are signalling: IEEE_UNDERFLOW_FLAG IEEE_DENORMAL
Note: The following floating-point exceptions are signalling: IEEE_UNDERFLOW_FLAG IEEE_DENORMAL
Note: The following floating-point exceptions are signalling: IEEE_UNDERFLOW_FLAG IEEE_DENORMAL
Note: The following floating-point exceptions are signalling: IEEE_UNDERFLOW_FLAG IEEE_DENORMAL
Note: The following floating-point exceptions are signalling: IEEE_UNDERFLOW_FLAG IEEE_DENORMAL
Note: The following floating-point exceptions are signalling: IEEE_UNDERFLOW_FLAG IEEE_DENORMAL
Note: The following floating-point exceptions are signalling: IEEE_UNDERFLOW_FLAG IEEE_DENORMAL
Note: The following floating-point exceptions are signalling: IEEE_DIVIDE_BY_ZERO IEEE_UNDERFLOW_FLAG IEEE_DENORMAL
Note: The following floating-point exceptions are signalling: IEEE_UNDERFLOW_FLAG IEEE_DENORMAL
