
     Program PWSCF v.7.5 starts on 22Mar2026 at 14:12:13 

     This program is part of the open-source Quantum ESPRESSO suite
     for quantum simulation of materials; please cite
         "P. Giannozzi et al., J. Phys.:Condens. Matter 21 395502 (2009);
         "P. Giannozzi et al., J. Phys.:Condens. Matter 29 465901 (2017);
         "P. Giannozzi et al., J. Chem. Phys. 152 154105 (2020);
          URL http://www.quantum-espresso.org", 
     in publications or presentations arising from this work. More details at
     http://www.quantum-espresso.org/quote

     Parallel version (MPI), running on    32 processors

     MPI processes distributed on     1 nodes
     13688 MiB available memory on the printing compute node when the environment starts

     Waiting for input...
     Reading input from standard input

     Current dimensions of program PWSCF are:
     Max number of different atomic species (ntypx) = 10
     Max number of k-points (npk) =  40000
     Max angular momentum in pseudopotentials (lmaxx) =  4
     file Sr.pbe-spn-kjpaw_psl.1.0.0.UPF: wavefunction(s)  4P renormalized
     file Ti.pbe-spn-kjpaw_psl.1.0.0-FCH.UPF: wavefunction(s)  3S 4S 3P 3D renormalized
     file O.pbe-n-kjpaw_psl.0.1.UPF: wavefunction(s)  2P renormalized

     Exact exchange band parallelism type set to band_pairs


     K-points division:     npool     =      32
     Subspace diagonalization in iterative solution of the eigenvalue problem:
     a serial algorithm will be used

     Message from routine divide_et_impera:
     suboptimal parallelization: some nodes have no k-points

     G-vector sticks info
     --------------------
     sticks:   dense  smooth     PW     G-vecs:    dense   smooth      PW
     Sum        2593     949    277                99873    22119    3407

     Using Slab Decomposition



     bravais-lattice index     =            1
     lattice parameter (alat)  =       7.3800  a.u.
     unit-cell volume          =     401.9473 (a.u.)^3
     number of atoms/cell      =            5
     number of atomic types    =            3
     number of electrons       =        40.00
     number of Kohn-Sham states=           30
     kinetic-energy cutoff     =      55.0000  Ry
     charge density cutoff     =     600.0000  Ry
     scf convergence threshold =      1.0E-08
     mixing beta               =       0.3000
     number of iterations used =            8  plain     mixing
     Exchange-correlation= SLA  PW   PBX  PBC
                           (   1   4   3   4   0   0   0)

     celldm(1)=   7.380000  celldm(2)=   0.000000  celldm(3)=   0.000000
     celldm(4)=   0.000000  celldm(5)=   0.000000  celldm(6)=   0.000000

     crystal axes: (cart. coord. in units of alat)
               a(1) = (   1.000000   0.000000   0.000000 )  
               a(2) = (   0.000000   1.000000   0.000000 )  
               a(3) = (   0.000000   0.000000   1.000000 )  

     reciprocal axes: (cart. coord. in units 2 pi/alat)
               b(1) = (  1.000000  0.000000  0.000000 )  
               b(2) = (  0.000000  1.000000  0.000000 )  
               b(3) = (  0.000000  0.000000  1.000000 )  


     PseudoPot. # 1 for Sr read from file:
     /path/to/xspectra-tutorial/SrTiO3/Ti_Ledge_FCH/../pseudo/Sr.pbe-spn-kjpaw_psl.1.0.0.UPF
     MD5 check sum: a3c6d0287e6b0f325c5350c23079ab60
     Pseudo is Projector augmented-wave + core cor, Zval = 10.0
     Generated using &quot;atomic&quot; code by A. Dal Corso  v.6.2.2
     Shape of augmentation charge: PSQ
     Using radial grid of 1221 points,  6 beta functions with: 
                l(1) =   0
                l(2) =   0
                l(3) =   1
                l(4) =   1
                l(5) =   2
                l(6) =   2
     Q(r) pseudized with 0 coefficients 


     PseudoPot. # 2 for Ti read from file:
     /path/to/xspectra-tutorial/SrTiO3/Ti_Ledge_FCH/../pseudo/Ti.pbe-spn-kjpaw_psl.1.0.0-FCH.UPF
     MD5 check sum: 7b148a5e1fb5c04ab30d6af557534b9d
     Pseudo is Projector augmented-wave + core cor, Zval = 13.0
     Generated using 'atomic' code by A. Dal Corso  v.7.5
     Shape of augmentation charge: BESSEL
     Using radial grid of 1177 points,  6 beta functions with: 
                l(1) =   0
                l(2) =   0
                l(3) =   1
                l(4) =   1
                l(5) =   2
                l(6) =   2
     Q(r) pseudized with 0 coefficients 


     PseudoPot. # 3 for O  read from file:
     /path/to/xspectra-tutorial/SrTiO3/Ti_Ledge_FCH/../pseudo/O.pbe-n-kjpaw_psl.0.1.UPF
     MD5 check sum: 833c495a5d0f9b75bf046115549bffff
     Pseudo is Projector augmented-wave + core cor, Zval =  6.0
     Generated using &quot;atomic&quot; code by A. Dal Corso  v.6.3
     Shape of augmentation charge: BESSEL
     Using radial grid of 1095 points,  4 beta functions with: 
                l(1) =   0
                l(2) =   0
                l(3) =   1
                l(4) =   1
     Q(r) pseudized with 0 coefficients 


     atomic species   valence    mass     pseudopotential
     Sr               10.00    87.62000     Sr( 1.00)
     Tih              13.00    47.86700     Ti( 1.00)
     O                 6.00    15.99900     O ( 1.00)

     48 Sym. Ops., with inversion, found



   Cartesian axes

     site n.     atom                  positions (alat units)
         1        Sr     tau(   1) = (   0.0000000   0.0000000   0.0000000  )
         2        Tih    tau(   2) = (   0.5000000   0.5000000   0.5000000  )
         3        O      tau(   3) = (   0.5000000   0.5000000   0.0000000  )
         4        O      tau(   4) = (   0.5000000   0.0000000   0.5000000  )
         5        O      tau(   5) = (   0.0000000   0.5000000   0.5000000  )

     number of k points=     4  Methfessel-Paxton smearing, width (Ry)=  0.0100
                       cart. coord. in units 2pi/alat
        k(    1) = (   0.1250000   0.1250000   0.1250000), wk =   0.2500000
        k(    2) = (   0.1250000   0.1250000   0.3750000), wk =   0.7500000
        k(    3) = (   0.1250000   0.3750000   0.3750000), wk =   0.7500000
        k(    4) = (   0.3750000   0.3750000   0.3750000), wk =   0.2500000

     Dense  grid:    99873 G-vectors     FFT dimensions: (  60,  60,  60)

     Smooth grid:    22119 G-vectors     FFT dimensions: (  36,  36,  36)

     Estimated max dynamical RAM per process >      82.04 MB

     Estimated total dynamical RAM >       1.83 GB

     Initial potential from superposition of free atoms

     starting charge      39.9924, renormalised to      40.0000
     Starting wfcs are   30 randomized atomic wfcs
     Checking if some PAW data can be deallocated... 

     total cpu time spent up to now is        1.8 secs

     Self-consistent Calculation

     iteration #  1     ecut=    55.00 Ry     beta= 0.30
     Davidson diagonalization with overlap
     ethr =  1.00E-02,  avg # of iterations =  5.2

     total cpu time spent up to now is        2.1 secs

     total energy              =    -589.48251338 Ry
     estimated scf accuracy    <       0.46824584 Ry

     iteration #  2     ecut=    55.00 Ry     beta= 0.30
     Davidson diagonalization with overlap
     ethr =  1.17E-03,  avg # of iterations =  3.0

     total cpu time spent up to now is        2.3 secs

     total energy              =    -589.40695500 Ry
     estimated scf accuracy    <       0.91945389 Ry

     iteration #  3     ecut=    55.00 Ry     beta= 0.30
     Davidson diagonalization with overlap
     ethr =  1.17E-03,  avg # of iterations =  2.5

     total cpu time spent up to now is        2.5 secs

     total energy              =    -589.53611090 Ry
     estimated scf accuracy    <       0.20531746 Ry

     iteration #  4     ecut=    55.00 Ry     beta= 0.30
     Davidson diagonalization with overlap
     ethr =  5.13E-04,  avg # of iterations =  1.2

     total cpu time spent up to now is        2.8 secs

     total energy              =    -589.53801575 Ry
     estimated scf accuracy    <       0.03209390 Ry

     iteration #  5     ecut=    55.00 Ry     beta= 0.30
     Davidson diagonalization with overlap
     ethr =  8.02E-05,  avg # of iterations =  2.2

     total cpu time spent up to now is        3.1 secs

     total energy              =    -589.54089096 Ry
     estimated scf accuracy    <       0.02474153 Ry

     iteration #  6     ecut=    55.00 Ry     beta= 0.30
     Davidson diagonalization with overlap
     ethr =  6.19E-05,  avg # of iterations =  1.0

     total cpu time spent up to now is        3.3 secs

     total energy              =    -589.54529941 Ry
     estimated scf accuracy    <       0.00553727 Ry

     iteration #  7     ecut=    55.00 Ry     beta= 0.30
     Davidson diagonalization with overlap
     ethr =  1.38E-05,  avg # of iterations =  5.2

     total cpu time spent up to now is        3.5 secs

     total energy              =    -589.54537338 Ry
     estimated scf accuracy    <       0.00086774 Ry

     iteration #  8     ecut=    55.00 Ry     beta= 0.30
     Davidson diagonalization with overlap
     ethr =  2.17E-06,  avg # of iterations =  4.2

     total cpu time spent up to now is        3.8 secs

     total energy              =    -589.54544313 Ry
     estimated scf accuracy    <       0.00000849 Ry

     iteration #  9     ecut=    55.00 Ry     beta= 0.30
     Davidson diagonalization with overlap
     ethr =  2.12E-08,  avg # of iterations =  2.0

     total cpu time spent up to now is        4.0 secs

     total energy              =    -589.54544167 Ry
     estimated scf accuracy    <       0.00000910 Ry

     iteration # 10     ecut=    55.00 Ry     beta= 0.30
     Davidson diagonalization with overlap
     ethr =  2.12E-08,  avg # of iterations =  1.0

     total cpu time spent up to now is        4.2 secs

     total energy              =    -589.54544253 Ry
     estimated scf accuracy    <       0.00000003 Ry

     iteration # 11     ecut=    55.00 Ry     beta= 0.30
     Davidson diagonalization with overlap
     ethr =  7.22E-11,  avg # of iterations =  3.2

     total cpu time spent up to now is        4.5 secs

     total energy              =    -589.54544256 Ry
     estimated scf accuracy    <       0.00000002 Ry

     iteration # 12     ecut=    55.00 Ry     beta= 0.30
     Davidson diagonalization with overlap
     ethr =  4.16E-11,  avg # of iterations =  1.0

     total cpu time spent up to now is        4.7 secs

     End of self-consistent calculation

          k = 0.1250 0.1250 0.1250 (  2788 PWs)   bands (ev):

   -51.1823 -27.1826 -27.1823 -27.1823 -22.0066  -7.9635  -7.0757  -7.0757
    -4.0108  -4.0108  -3.8867   6.0939   6.2907   6.2907   7.4559   7.4559
     7.9325   8.4581   8.5173   8.5173   9.9880  10.0842  10.0842  11.9685
    11.9685  16.7348  16.7348  17.3784  19.0223  19.0739

          k = 0.1250 0.1250 0.3750 (  2757 PWs)   bands (ev):

   -51.1817 -27.2064 -27.1812 -27.1812 -21.9895  -7.9155  -7.0297  -6.9760
    -4.0244  -3.9227  -3.7403   4.9093   6.0543   6.3138   6.4856   6.6161
     7.6977   8.0787   8.2829   8.3419  10.0789  10.9927  11.0281  11.9462
    13.6271  17.7571  17.9654  18.8796  19.1087  19.4758

          k = 0.1250 0.3750 0.3750 (  2777 PWs)   bands (ev):

   -51.1812 -27.2051 -27.2048 -27.1802 -21.9756  -7.5568  -7.0699  -6.9808
    -4.0178  -3.9370  -3.8218   4.9055   4.9216   5.3311   6.2437   6.4315
     7.0158   8.1653   8.2866   9.1171  10.9977  11.0457  11.2673  12.7011
    14.7185  18.3064  18.6132  19.1075  19.2958  19.9664

          k = 0.3750 0.3750 0.3750 (  2755 PWs)   bands (ev):

   -51.1806 -27.2038 -27.2036 -27.2036 -21.9622  -7.1677  -6.9119  -6.9119
    -4.2015  -4.2015  -4.0270   4.9352   4.9352   5.0121   5.6375   5.8484
     5.8484   9.0306   9.0306   9.2113  11.3635  11.4063  11.4063  14.6995
    14.6995  17.9247  18.0198  18.0198  19.8995  19.8995

     the Fermi energy is     9.5992 ev

!    total energy              =    -589.54544255 Ry
     total all-electron energy =     -8486.135000 Ry
     estimated scf accuracy    <          4.4E-09 Ry
     smearing contrib. (-TS)   =       0.00000337 Ry
     internal energy E=F+TS    =    -589.54544592 Ry

     The total energy is F=E-TS. E is the sum of the following terms:
     one-electron contribution =     -94.23445487 Ry
     hartree contribution      =      70.78386142 Ry
     xc contribution           =     -56.74081858 Ry
     ewald contribution        =    -224.74162911 Ry
     one-center paw contrib.   =    -284.61240477 Ry

     convergence has been achieved in  12 iterations

     Writing all to output data dir ./tmp/SrTiO3_TiL_FCH.save/ :
     XML data file, charge density, pseudopotentials, collected wavefunctions

     init_run     :      1.34s CPU      1.45s WALL (       1 calls)
     electrons    :      2.70s CPU      2.90s WALL (       1 calls)

     Called by init_run:
     wfcinit      :      0.02s CPU      0.02s WALL (       1 calls)
     potinit      :      0.36s CPU      0.39s WALL (       1 calls)
     hinit0       :      0.86s CPU      0.93s WALL (       1 calls)

     Called by electrons:
     c_bands      :      0.51s CPU      0.52s WALL (      12 calls)
     sum_band     :      0.45s CPU      0.48s WALL (      12 calls)
     v_of_rho     :      0.84s CPU      0.98s WALL (      13 calls)
     newd         :      0.24s CPU      0.26s WALL (      13 calls)
     PAW_pot      :      0.61s CPU      0.64s WALL (      13 calls)
     mix_rho      :      0.06s CPU      0.06s WALL (      12 calls)

     Called by c_bands:
     init_us_2    :      0.03s CPU      0.03s WALL (      25 calls)
     cegterg      :      0.43s CPU      0.43s WALL (      12 calls)

     Called by *egterg:
     cdiaghg      :      0.03s CPU      0.03s WALL (      44 calls)
     h_psi        :      0.31s CPU      0.31s WALL (      45 calls)
     s_psi        :      0.02s CPU      0.02s WALL (      45 calls)
     g_psi        :      0.00s CPU      0.00s WALL (      32 calls)

     Called by h_psi:
     h_psi:calbec :      0.02s CPU      0.02s WALL (      45 calls)
     vloc_psi     :      0.26s CPU      0.26s WALL (      45 calls)
                                        0.00s GPU  (      45 calls)
     add_vuspsi   :      0.02s CPU      0.02s WALL (      45 calls)

     General routines
     calbec       :      0.03s CPU      0.03s WALL (      57 calls)
     fft          :      0.13s CPU      0.21s WALL (     167 calls)
     ffts         :      0.00s CPU      0.00s WALL (      25 calls)
     fftw         :      0.25s CPU      0.25s WALL (    2010 calls)
     interpolate  :      0.02s CPU      0.02s WALL (      13 calls)

     Parallel routines

     PWSCF        :      4.38s CPU      4.72s WALL


   This run was terminated on:  14:12:17  22Mar2026            

=------------------------------------------------------------------------------=
   JOB DONE.
=------------------------------------------------------------------------------=
Note: The following floating-point exceptions are signalling: IEEE_UNDERFLOW_FLAG IEEE_DENORMAL
Note: The following floating-point exceptions are signalling: IEEE_DIVIDE_BY_ZERO IEEE_UNDERFLOW_FLAG IEEE_DENORMAL
Note: The following floating-point exceptions are signalling: IEEE_UNDERFLOW_FLAG IEEE_DENORMAL
Note: The following floating-point exceptions are signalling: IEEE_UNDERFLOW_FLAG IEEE_DENORMAL
Note: The following floating-point exceptions are signalling: IEEE_UNDERFLOW_FLAG IEEE_DENORMAL
Note: The following floating-point exceptions are signalling: IEEE_UNDERFLOW_FLAG IEEE_DENORMAL
Note: The following floating-point exceptions are signalling: IEEE_UNDERFLOW_FLAG IEEE_DENORMAL
Note: The following floating-point exceptions are signalling: IEEE_UNDERFLOW_FLAG IEEE_DENORMAL
Note: The following floating-point exceptions are signalling: IEEE_DIVIDE_BY_ZERO IEEE_UNDERFLOW_FLAG IEEE_DENORMAL
Note: The following floating-point exceptions are signalling: IEEE_UNDERFLOW_FLAG IEEE_DENORMAL
Note: The following floating-point exceptions are signalling: IEEE_UNDERFLOW_FLAG IEEE_DENORMAL
Note: The following floating-point exceptions are signalling: IEEE_UNDERFLOW_FLAG IEEE_DENORMAL
Note: The following floating-point exceptions are signalling: IEEE_UNDERFLOW_FLAG IEEE_DENORMAL
Note: The following floating-point exceptions are signalling: IEEE_DIVIDE_BY_ZERO IEEE_UNDERFLOW_FLAG IEEE_DENORMAL
Note: The following floating-point exceptions are signalling: IEEE_DIVIDE_BY_ZERO IEEE_UNDERFLOW_FLAG IEEE_DENORMAL
Note: The following floating-point exceptions are signalling: IEEE_UNDERFLOW_FLAG IEEE_DENORMAL
Note: The following floating-point exceptions are signalling: IEEE_UNDERFLOW_FLAG IEEE_DENORMAL
Note: The following floating-point exceptions are signalling: IEEE_UNDERFLOW_FLAG IEEE_DENORMAL
Note: The following floating-point exceptions are signalling: IEEE_UNDERFLOW_FLAG IEEE_DENORMAL
Note: The following floating-point exceptions are signalling: IEEE_UNDERFLOW_FLAG IEEE_DENORMAL
Note: The following floating-point exceptions are signalling: IEEE_UNDERFLOW_FLAG IEEE_DENORMAL
Note: The following floating-point exceptions are signalling: IEEE_UNDERFLOW_FLAG IEEE_DENORMAL
Note: The following floating-point exceptions are signalling: IEEE_UNDERFLOW_FLAG IEEE_DENORMAL
Note: The following floating-point exceptions are signalling: IEEE_UNDERFLOW_FLAG IEEE_DENORMAL
Note: The following floating-point exceptions are signalling: IEEE_UNDERFLOW_FLAG IEEE_DENORMAL
Note: The following floating-point exceptions are signalling: IEEE_UNDERFLOW_FLAG IEEE_DENORMAL
Note: The following floating-point exceptions are signalling: IEEE_UNDERFLOW_FLAG IEEE_DENORMAL
Note: The following floating-point exceptions are signalling: IEEE_UNDERFLOW_FLAG IEEE_DENORMAL
Note: The following floating-point exceptions are signalling: IEEE_UNDERFLOW_FLAG IEEE_DENORMAL
Note: The following floating-point exceptions are signalling: IEEE_UNDERFLOW_FLAG IEEE_DENORMAL
Note: The following floating-point exceptions are signalling: IEEE_UNDERFLOW_FLAG IEEE_DENORMAL
Note: The following floating-point exceptions are signalling: IEEE_UNDERFLOW_FLAG IEEE_DENORMAL
