
     Program PWSCF v.7.5 starts on 22Mar2026 at 15: 8:43 

     This program is part of the open-source Quantum ESPRESSO suite
     for quantum simulation of materials; please cite
         "P. Giannozzi et al., J. Phys.:Condens. Matter 21 395502 (2009);
         "P. Giannozzi et al., J. Phys.:Condens. Matter 29 465901 (2017);
         "P. Giannozzi et al., J. Chem. Phys. 152 154105 (2020);
          URL http://www.quantum-espresso.org", 
     in publications or presentations arising from this work. More details at
     http://www.quantum-espresso.org/quote

     Parallel version (MPI), running on    32 processors

     MPI processes distributed on     1 nodes
     13932 MiB available memory on the printing compute node when the environment starts

     Waiting for input...
     Reading input from standard input

     Current dimensions of program PWSCF are:
     Max number of different atomic species (ntypx) = 10
     Max number of k-points (npk) =  40000
     Max angular momentum in pseudopotentials (lmaxx) =  4
     file Sr.pbe-spn-kjpaw_psl.1.0.0.UPF: wavefunction(s)  4P renormalized
     file Ti.pbe-spn-kjpaw_psl.1.0.0.UPF: wavefunction(s)  3S 3P 3D renormalized
     file O.pbe-n-kjpaw_psl.0.1-HCH.UPF: wavefunction(s)  2S 2P renormalized
     file O.pbe-n-kjpaw_psl.0.1.UPF: wavefunction(s)  2P renormalized

     Exact exchange band parallelism type set to band_pairs


     K-points division:     npool     =       4
     R & G space division:  proc/nbgrp/npool/nimage =       8
     Subspace diagonalization in iterative solution of the eigenvalue problem:
     a serial algorithm will be used

     Message from routine divide_et_impera:
     suboptimal parallelization: some nodes have no k-points

     Parallelization info
     --------------------
     sticks:   dense  smooth     PW     G-vecs:    dense   smooth      PW
     Min        1300     476    125                99784    22188    3013
     Max        1301     477    126                99789    22191    3016
     Sum       10405    3809   1005               798295   177509   24111

     Using Slab Decomposition



     bravais-lattice index     =            1
     lattice parameter (alat)  =      14.7600  a.u.
     unit-cell volume          =    3215.5782 (a.u.)^3
     number of atoms/cell      =           40
     number of atomic types    =            4
     number of electrons       =       320.00
     number of Kohn-Sham states=          240
     kinetic-energy cutoff     =      55.0000  Ry
     charge density cutoff     =     600.0000  Ry
     scf convergence threshold =      1.0E-08
     mixing beta               =       0.3000
     number of iterations used =            8  plain     mixing
     Exchange-correlation= SLA  PW   PBX  PBC
                           (   1   4   3   4   0   0   0)

     celldm(1)=  14.760000  celldm(2)=   0.000000  celldm(3)=   0.000000
     celldm(4)=   0.000000  celldm(5)=   0.000000  celldm(6)=   0.000000

     crystal axes: (cart. coord. in units of alat)
               a(1) = (   1.000000   0.000000   0.000000 )  
               a(2) = (   0.000000   1.000000   0.000000 )  
               a(3) = (   0.000000   0.000000   1.000000 )  

     reciprocal axes: (cart. coord. in units 2 pi/alat)
               b(1) = (  1.000000  0.000000  0.000000 )  
               b(2) = (  0.000000  1.000000  0.000000 )  
               b(3) = (  0.000000  0.000000  1.000000 )  


     PseudoPot. # 1 for Sr read from file:
     /path/to/xspectra-tutorial/SrTiO3/O_Kedge_HCH_super/../pseudo/Sr.pbe-spn-kjpaw_psl.1.0.0.UPF
     MD5 check sum: a3c6d0287e6b0f325c5350c23079ab60
     Pseudo is Projector augmented-wave + core cor, Zval = 10.0
     Generated using &quot;atomic&quot; code by A. Dal Corso  v.6.2.2
     Shape of augmentation charge: PSQ
     Using radial grid of 1221 points,  6 beta functions with: 
                l(1) =   0
                l(2) =   0
                l(3) =   1
                l(4) =   1
                l(5) =   2
                l(6) =   2
     Q(r) pseudized with 0 coefficients 


     PseudoPot. # 2 for Ti read from file:
     /path/to/xspectra-tutorial/SrTiO3/O_Kedge_HCH_super/../pseudo/Ti.pbe-spn-kjpaw_psl.1.0.0.UPF
     MD5 check sum: 01f69b0d8ba4438b2e03ac6ea4af1c0b
     Pseudo is Projector augmented-wave + core cor, Zval = 12.0
     Generated using &quot;atomic&quot; code by A. Dal Corso  v.6.2.2
     Shape of augmentation charge: PSQ
     Using radial grid of 1177 points,  6 beta functions with: 
                l(1) =   0
                l(2) =   0
                l(3) =   1
                l(4) =   1
                l(5) =   2
                l(6) =   2
     Q(r) pseudized with 0 coefficients 


     PseudoPot. # 3 for O  read from file:
     /path/to/xspectra-tutorial/SrTiO3/O_Kedge_HCH_super/../pseudo/O.pbe-n-kjpaw_psl.0.1-HCH.UPF
     MD5 check sum: 9d8a1b889f11fc4f6cf4b18c1bbdb73a
     Pseudo is Projector augmented-wave + core cor, Zval =  6.5
     Generated using 'atomic' code by A. Dal Corso  v.7.5
     Shape of augmentation charge: BESSEL
     Using radial grid of 1095 points,  4 beta functions with: 
                l(1) =   0
                l(2) =   0
                l(3) =   1
                l(4) =   1
     Q(r) pseudized with 0 coefficients 


     PseudoPot. # 4 for O  read from file:
     /path/to/xspectra-tutorial/SrTiO3/O_Kedge_HCH_super/../pseudo/O.pbe-n-kjpaw_psl.0.1.UPF
     MD5 check sum: 833c495a5d0f9b75bf046115549bffff
     Pseudo is Projector augmented-wave + core cor, Zval =  6.0
     Generated using &quot;atomic&quot; code by A. Dal Corso  v.6.3
     Shape of augmentation charge: BESSEL
     Using radial grid of 1095 points,  4 beta functions with: 
                l(1) =   0
                l(2) =   0
                l(3) =   1
                l(4) =   1
     Q(r) pseudized with 0 coefficients 


     atomic species   valence    mass     pseudopotential
     Sr               10.00    87.62000     Sr( 1.00)
     Ti               12.00    47.86700     Ti( 1.00)
     Oh                6.50    15.99900     O ( 1.00)
     O                 6.00    15.99900     O ( 1.00)

     16 Sym. Ops., with inversion, found (12 have fractional translation)



   Cartesian axes

     site n.     atom                  positions (alat units)
         1        Sr     tau(   1) = (   0.0000000   0.0000000   0.0000000  )
         2        Sr     tau(   2) = (   0.5000000   0.0000000   0.0000000  )
         3        Sr     tau(   3) = (   0.0000000   0.5000000   0.0000000  )
         4        Sr     tau(   4) = (   0.0000000   0.0000000   0.5000000  )
         5        Sr     tau(   5) = (   0.5000000   0.5000000   0.0000000  )
         6        Sr     tau(   6) = (   0.5000000   0.0000000   0.5000000  )
         7        Sr     tau(   7) = (   0.0000000   0.5000000   0.5000000  )
         8        Sr     tau(   8) = (   0.5000000   0.5000000   0.5000000  )
         9        Ti     tau(   9) = (   0.2500000   0.2500000   0.2500000  )
        10        Ti     tau(  10) = (   0.7500000   0.2500000   0.2500000  )
        11        Ti     tau(  11) = (   0.2500000   0.7500000   0.2500000  )
        12        Ti     tau(  12) = (   0.2500000   0.2500000   0.7500000  )
        13        Ti     tau(  13) = (   0.7500000   0.7500000   0.2500000  )
        14        Ti     tau(  14) = (   0.7500000   0.2500000   0.7500000  )
        15        Ti     tau(  15) = (   0.2500000   0.7500000   0.7500000  )
        16        Ti     tau(  16) = (   0.7500000   0.7500000   0.7500000  )
        17        Oh     tau(  17) = (   0.2500000   0.2500000   0.0000000  )
        18        O      tau(  18) = (   0.2500000   0.0000000   0.2500000  )
        19        O      tau(  19) = (   0.0000000   0.2500000   0.2500000  )
        20        O      tau(  20) = (   0.7500000   0.2500000   0.0000000  )
        21        O      tau(  21) = (   0.7500000   0.0000000   0.2500000  )
        22        O      tau(  22) = (   0.5000000   0.2500000   0.2500000  )
        23        O      tau(  23) = (   0.2500000   0.7500000   0.0000000  )
        24        O      tau(  24) = (   0.2500000   0.5000000   0.2500000  )
        25        O      tau(  25) = (   0.0000000   0.7500000   0.2500000  )
        26        O      tau(  26) = (   0.2500000   0.2500000   0.5000000  )
        27        O      tau(  27) = (   0.2500000   0.0000000   0.7500000  )
        28        O      tau(  28) = (   0.0000000   0.2500000   0.7500000  )
        29        O      tau(  29) = (   0.7500000   0.7500000   0.0000000  )
        30        O      tau(  30) = (   0.7500000   0.5000000   0.2500000  )
        31        O      tau(  31) = (   0.5000000   0.7500000   0.2500000  )
        32        O      tau(  32) = (   0.7500000   0.2500000   0.5000000  )
        33        O      tau(  33) = (   0.7500000   0.0000000   0.7500000  )
        34        O      tau(  34) = (   0.5000000   0.2500000   0.7500000  )
        35        O      tau(  35) = (   0.2500000   0.7500000   0.5000000  )
        36        O      tau(  36) = (   0.2500000   0.5000000   0.7500000  )
        37        O      tau(  37) = (   0.0000000   0.7500000   0.7500000  )
        38        O      tau(  38) = (   0.7500000   0.7500000   0.5000000  )
        39        O      tau(  39) = (   0.7500000   0.5000000   0.7500000  )
        40        O      tau(  40) = (   0.5000000   0.7500000   0.7500000  )

     number of k points=     1  Methfessel-Paxton smearing, width (Ry)=  0.0100
                       cart. coord. in units 2pi/alat
        k(    1) = (   0.2500000   0.2500000   0.2500000), wk =   2.0000000

     Dense  grid:   798295 G-vectors     FFT dimensions: ( 120, 120, 120)

     Smooth grid:   177509 G-vectors     FFT dimensions: (  72,  72,  72)

     Estimated max dynamical RAM per process >     183.84 MB

     Estimated total dynamical RAM >       5.17 GB

     Check: negative core charge=   -0.000002

     Initial potential from superposition of free atoms

     starting charge     319.9274, renormalised to     320.0000
     Starting wfcs are  240 randomized atomic wfcs
     Checking if some PAW data can be deallocated... 

     total cpu time spent up to now is        2.1 secs

     Self-consistent Calculation

     iteration #  1     ecut=    55.00 Ry     beta= 0.30
     Davidson diagonalization with overlap
     ethr =  1.00E-02,  avg # of iterations =  8.0

     total cpu time spent up to now is        4.9 secs

     total energy              =   -4559.42260519 Ry
     estimated scf accuracy    <      14.45262017 Ry

     iteration #  2     ecut=    55.00 Ry     beta= 0.30
     Davidson diagonalization with overlap
     ethr =  4.52E-03,  avg # of iterations =  2.0

     total cpu time spent up to now is        6.8 secs

     total energy              =   -4562.10809071 Ry
     estimated scf accuracy    <       0.99532329 Ry

     iteration #  3     ecut=    55.00 Ry     beta= 0.30
     Davidson diagonalization with overlap
     ethr =  3.11E-04,  avg # of iterations =  2.0

     total cpu time spent up to now is        8.6 secs

     total energy              =   -4562.27177247 Ry
     estimated scf accuracy    <       0.25022202 Ry

     iteration #  4     ecut=    55.00 Ry     beta= 0.30
     Davidson diagonalization with overlap
     ethr =  7.82E-05,  avg # of iterations = 11.0

     total cpu time spent up to now is       11.2 secs

     total energy              =   -4562.28691111 Ry
     estimated scf accuracy    <       0.07648543 Ry

     iteration #  5     ecut=    55.00 Ry     beta= 0.30
     Davidson diagonalization with overlap
     ethr =  2.39E-05,  avg # of iterations =  2.0

     total cpu time spent up to now is       13.0 secs

     total energy              =   -4562.29102058 Ry
     estimated scf accuracy    <       0.01174507 Ry

     iteration #  6     ecut=    55.00 Ry     beta= 0.30
     Davidson diagonalization with overlap
     ethr =  3.67E-06,  avg # of iterations =  5.0

     total cpu time spent up to now is       14.7 secs

     total energy              =   -4562.29222638 Ry
     estimated scf accuracy    <       0.00094895 Ry

     iteration #  7     ecut=    55.00 Ry     beta= 0.30
     Davidson diagonalization with overlap
     ethr =  2.97E-07,  avg # of iterations =  2.0

     total cpu time spent up to now is       16.2 secs

     total energy              =   -4562.29237834 Ry
     estimated scf accuracy    <       0.00024848 Ry

     iteration #  8     ecut=    55.00 Ry     beta= 0.30
     Davidson diagonalization with overlap
     ethr =  7.76E-08,  avg # of iterations =  2.0

     total cpu time spent up to now is       17.6 secs

     total energy              =   -4562.29242705 Ry
     estimated scf accuracy    <       0.00003558 Ry

     iteration #  9     ecut=    55.00 Ry     beta= 0.30
     Davidson diagonalization with overlap
     ethr =  1.11E-08,  avg # of iterations =  2.0

     total cpu time spent up to now is       19.1 secs

     total energy              =   -4562.29243456 Ry
     estimated scf accuracy    <       0.00000915 Ry

     iteration # 10     ecut=    55.00 Ry     beta= 0.30
     Davidson diagonalization with overlap
     ethr =  2.86E-09,  avg # of iterations =  2.0

     total cpu time spent up to now is       20.6 secs

     total energy              =   -4562.29243709 Ry
     estimated scf accuracy    <       0.00000391 Ry

     iteration # 11     ecut=    55.00 Ry     beta= 0.30
     Davidson diagonalization with overlap
     ethr =  1.22E-09,  avg # of iterations =  2.0

     total cpu time spent up to now is       22.1 secs

     total energy              =   -4562.29243779 Ry
     estimated scf accuracy    <       0.00000054 Ry

     iteration # 12     ecut=    55.00 Ry     beta= 0.30
     Davidson diagonalization with overlap
     ethr =  1.69E-10,  avg # of iterations =  2.0

     total cpu time spent up to now is       23.6 secs

     total energy              =   -4562.29243799 Ry
     estimated scf accuracy    <       0.00000008 Ry

     iteration # 13     ecut=    55.00 Ry     beta= 0.30
     Davidson diagonalization with overlap
     ethr =  2.61E-11,  avg # of iterations =  2.0

     total cpu time spent up to now is       25.3 secs

     End of self-consistent calculation

          k = 0.2500 0.2500 0.2500 ( 22145 PWs)   bands (ev):

   -46.6399 -46.6388 -46.3142 -46.3142 -46.3132 -46.3132 -46.2244 -46.2234
   -23.0422 -22.9802 -22.9183 -22.9181 -22.9067 -22.9067 -22.7209 -22.7110
   -22.7003 -22.6775 -22.6525 -22.6465 -22.6380 -22.6285 -22.6236 -22.6235
   -22.6110 -22.6021 -22.5901 -22.5893 -22.5819 -22.5818 -22.5578 -22.5401
   -22.5341 -22.5191 -22.5141 -22.5140 -22.4998 -22.4876 -22.4866 -22.4831
    -8.8521  -7.3760  -7.3495  -7.2689  -7.2017  -6.9390  -6.9357  -6.8084
    -6.4861  -6.4595  -6.4564  -6.4253  -6.4106  -6.3327  -6.3144  -6.2832
    -6.2599  -6.2480  -6.2163  -6.2072  -6.1718  -6.1623  -6.1224  -6.1112
    -4.7662  -4.7647  -4.6798  -4.6687  -4.6439  -4.6394  -4.6005  -4.5938
    -4.5914  -4.5399  -4.5231  -4.4878  -4.4479  -4.4448  -4.4230  -4.3917
    -4.3533  -4.3520  -4.2800  -4.2566  -4.2557  -4.1737  -4.1706  -4.1596
     4.6370   5.3525   5.3897   5.7290   5.8117   5.8527   5.9038   5.9227
     5.9314   6.0419   6.0546   6.0998   6.1698   6.1715   6.2166   6.2463
     6.2859   6.3701   6.5417   6.6100   6.6348   6.7735   6.8644   6.8716
     6.9542   7.0152   7.0365   7.0901   7.0939   7.1434   7.1723   7.1816
     7.1897   7.1924   7.2084   7.2368   7.3332   7.3619   7.3644   7.8069
     7.9458   7.9486   7.9579   8.0045   8.2825   8.3276   8.4128   8.5021
     8.5920   8.7058   8.7678   8.7715   8.8294   8.8426   8.8488   8.8760
     8.8913   8.9059   8.9295   8.9400   8.9663   8.9961   9.1083   9.1330
     9.3183   9.3258   9.5023   9.5667   9.7349   9.7711   9.8051   9.9045
    12.3807  12.4245  12.5207  12.6141  12.6735  12.6888  13.3997  13.4047
    13.5507  13.5815  13.6018  13.6627  13.6866  13.7367  13.7643  13.7750
    13.7862  13.7982  14.0399  14.0466  14.1110  14.2462  14.2742  14.2833
    14.8032  15.0468  15.0915  15.1941  15.2160  15.7545  15.7902  15.8081
    16.2400  16.2488  16.6125  16.6951  16.6994  17.1033  17.3528  17.3767
    17.4068  17.4158  17.5358  17.5543  17.5667  17.5677  17.6010  17.7085
    17.8949  17.8976  17.9424  17.9600  17.9705  18.0637  18.0746  18.2515
    18.3042  18.3044  18.4334  18.4618  18.4856  18.6981  18.7227  18.7244
    18.7612  18.7664  18.7768  18.7817  18.7966  18.8339  18.9344  18.9467
    18.9561  19.1525  19.1749  19.1990  19.3921  19.4059  19.5349  19.5796

     the Fermi energy is    11.2454 ev

!    total energy              =   -4562.29243807 Ry
     total all-electron energy =    -68133.149453 Ry
     estimated scf accuracy    <          6.9E-09 Ry
     smearing contrib. (-TS)   =       0.00000000 Ry
     internal energy E=F+TS    =   -4562.29243807 Ry

     The total energy is F=E-TS. E is the sum of the following terms:
     one-electron contribution =    -587.98988411 Ry
     hartree contribution      =     487.93895838 Ry
     xc contribution           =    -476.53002413 Ry
     ewald contribution        =   -1704.15896156 Ry
     one-center paw contrib.   =   -2281.55252665 Ry

     convergence has been achieved in  13 iterations

     Writing all to output data dir ./tmp/SrTiO3_OK_HCH_super.save/ :
     XML data file, charge density, pseudopotentials, collected wavefunctions

     init_run     :      1.40s CPU      1.63s WALL (       1 calls)
     electrons    :     20.73s CPU     23.20s WALL (       1 calls)

     Called by init_run:
     wfcinit      :      0.29s CPU      0.33s WALL (       1 calls)
     potinit      :      0.51s CPU      0.56s WALL (       1 calls)
     hinit0       :      0.23s CPU      0.28s WALL (       1 calls)

     Called by electrons:
     c_bands      :     11.26s CPU     12.00s WALL (      13 calls)
     sum_band     :      2.94s CPU      3.91s WALL (      13 calls)
     v_of_rho     :      1.04s CPU      1.09s WALL (      14 calls)
     newd         :      2.05s CPU      2.80s WALL (      14 calls)
     PAW_pot      :      3.80s CPU      3.83s WALL (      14 calls)
     mix_rho      :      0.11s CPU      0.12s WALL (      13 calls)

     Called by c_bands:
     init_us_2    :      0.13s CPU      0.14s WALL (      27 calls)
     cegterg      :     10.97s CPU     11.71s WALL (      13 calls)

     Called by *egterg:
     cdiaghg      :      2.73s CPU      2.74s WALL (      57 calls)
     h_psi        :      4.14s CPU      4.69s WALL (      58 calls)
     s_psi        :      0.90s CPU      0.91s WALL (      58 calls)
     g_psi        :      0.03s CPU      0.03s WALL (      44 calls)

     Called by h_psi:
     h_psi:calbec :      0.89s CPU      0.92s WALL (      58 calls)
     vloc_psi     :      2.33s CPU      2.79s WALL (      58 calls)
                                        0.00s GPU  (      58 calls)
     add_vuspsi   :      0.87s CPU      0.90s WALL (      58 calls)

     General routines
     calbec       :      1.24s CPU      1.28s WALL (      71 calls)
     fft          :      0.48s CPU      0.56s WALL (     180 calls)
     ffts         :      0.01s CPU      0.02s WALL (      27 calls)
     fftw         :      2.42s CPU      2.88s WALL (   17764 calls)
     interpolate  :      0.04s CPU      0.05s WALL (      14 calls)

     Parallel routines

     PWSCF        :     22.63s CPU     25.43s WALL


   This run was terminated on:  15: 9: 9  22Mar2026            

=------------------------------------------------------------------------------=
   JOB DONE.
=------------------------------------------------------------------------------=
Note: The following floating-point exceptions are signalling: IEEE_UNDERFLOW_FLAG IEEE_DENORMAL
Note: The following floating-point exceptions are signalling: IEEE_UNDERFLOW_FLAG IEEE_DENORMAL
Note: The following floating-point exceptions are signalling: IEEE_UNDERFLOW_FLAG IEEE_DENORMAL
Note: The following floating-point exceptions are signalling: IEEE_UNDERFLOW_FLAG IEEE_DENORMAL
Note: The following floating-point exceptions are signalling: IEEE_UNDERFLOW_FLAG IEEE_DENORMAL
Note: The following floating-point exceptions are signalling: IEEE_UNDERFLOW_FLAG IEEE_DENORMAL
Note: The following floating-point exceptions are signalling: IEEE_UNDERFLOW_FLAG IEEE_DENORMAL
Note: The following floating-point exceptions are signalling: IEEE_UNDERFLOW_FLAG IEEE_DENORMAL
Note: The following floating-point exceptions are signalling: IEEE_UNDERFLOW_FLAG IEEE_DENORMAL
Note: The following floating-point exceptions are signalling: IEEE_UNDERFLOW_FLAG IEEE_DENORMAL
Note: The following floating-point exceptions are signalling: IEEE_UNDERFLOW_FLAG IEEE_DENORMAL
Note: The following floating-point exceptions are signalling: IEEE_UNDERFLOW_FLAG IEEE_DENORMAL
Note: The following floating-point exceptions are signalling: IEEE_UNDERFLOW_FLAG IEEE_DENORMAL
Note: The following floating-point exceptions are signalling: IEEE_UNDERFLOW_FLAG IEEE_DENORMAL
Note: The following floating-point exceptions are signalling: IEEE_UNDERFLOW_FLAG IEEE_DENORMAL
Note: The following floating-point exceptions are signalling: IEEE_UNDERFLOW_FLAG IEEE_DENORMAL
Note: The following floating-point exceptions are signalling: IEEE_UNDERFLOW_FLAG IEEE_DENORMAL
Note: The following floating-point exceptions are signalling: IEEE_UNDERFLOW_FLAG IEEE_DENORMAL
Note: The following floating-point exceptions are signalling: IEEE_UNDERFLOW_FLAG IEEE_DENORMAL
Note: The following floating-point exceptions are signalling: IEEE_UNDERFLOW_FLAG IEEE_DENORMAL
Note: The following floating-point exceptions are signalling: IEEE_DIVIDE_BY_ZERO IEEE_UNDERFLOW_FLAG IEEE_DENORMAL
Note: The following floating-point exceptions are signalling: IEEE_UNDERFLOW_FLAG IEEE_DENORMAL
Note: The following floating-point exceptions are signalling: IEEE_UNDERFLOW_FLAG IEEE_DENORMAL
Note: The following floating-point exceptions are signalling: IEEE_UNDERFLOW_FLAG IEEE_DENORMAL
Note: The following floating-point exceptions are signalling: IEEE_UNDERFLOW_FLAG IEEE_DENORMAL
Note: The following floating-point exceptions are signalling: IEEE_UNDERFLOW_FLAG IEEE_DENORMAL
Note: The following floating-point exceptions are signalling: IEEE_UNDERFLOW_FLAG IEEE_DENORMAL
Note: The following floating-point exceptions are signalling: IEEE_UNDERFLOW_FLAG IEEE_DENORMAL
Note: The following floating-point exceptions are signalling: IEEE_UNDERFLOW_FLAG IEEE_DENORMAL
Note: The following floating-point exceptions are signalling: IEEE_UNDERFLOW_FLAG IEEE_DENORMAL
Note: The following floating-point exceptions are signalling: IEEE_UNDERFLOW_FLAG IEEE_DENORMAL
Note: The following floating-point exceptions are signalling: IEEE_UNDERFLOW_FLAG IEEE_DENORMAL
