
     Program PWSCF v.7.5 starts on 22Mar2026 at 15:10:18 

     This program is part of the open-source Quantum ESPRESSO suite
     for quantum simulation of materials; please cite
         "P. Giannozzi et al., J. Phys.:Condens. Matter 21 395502 (2009);
         "P. Giannozzi et al., J. Phys.:Condens. Matter 29 465901 (2017);
         "P. Giannozzi et al., J. Chem. Phys. 152 154105 (2020);
          URL http://www.quantum-espresso.org", 
     in publications or presentations arising from this work. More details at
     http://www.quantum-espresso.org/quote

     Parallel version (MPI), running on    32 processors

     MPI processes distributed on     1 nodes
     12643 MiB available memory on the printing compute node when the environment starts

     Waiting for input...
     Reading input from standard input

     Current dimensions of program PWSCF are:
     Max number of different atomic species (ntypx) = 10
     Max number of k-points (npk) =  40000
     Max angular momentum in pseudopotentials (lmaxx) =  4
     file Sr.pbe-spn-kjpaw_psl.1.0.0.UPF: wavefunction(s)  4P renormalized
     file Ti.pbe-spn-kjpaw_psl.1.0.0-HCH.UPF: wavefunction(s)  3S 4S 3P 3D renormalized
     file Ti.pbe-spn-kjpaw_psl.1.0.0.UPF: wavefunction(s)  3S 3P 3D renormalized
     file O.pbe-n-kjpaw_psl.0.1.UPF: wavefunction(s)  2P renormalized

     Exact exchange band parallelism type set to band_pairs


     K-points division:     npool     =       4
     R & G space division:  proc/nbgrp/npool/nimage =       8
     Subspace diagonalization in iterative solution of the eigenvalue problem:
     a serial algorithm will be used

     Message from routine divide_et_impera:
     suboptimal parallelization: some nodes have no k-points

     Parallelization info
     --------------------
     sticks:   dense  smooth     PW     G-vecs:    dense   smooth      PW
     Min        1300     476    125                99784    22188    3013
     Max        1301     477    126                99789    22191    3016
     Sum       10405    3809   1005               798295   177509   24111

     Using Slab Decomposition



     bravais-lattice index     =            1
     lattice parameter (alat)  =      14.7600  a.u.
     unit-cell volume          =    3215.5782 (a.u.)^3
     number of atoms/cell      =           40
     number of atomic types    =            4
     number of electrons       =       320.00
     number of Kohn-Sham states=          240
     kinetic-energy cutoff     =      55.0000  Ry
     charge density cutoff     =     600.0000  Ry
     scf convergence threshold =      1.0E-08
     mixing beta               =       0.3000
     number of iterations used =            8  plain     mixing
     Exchange-correlation= SLA  PW   PBX  PBC
                           (   1   4   3   4   0   0   0)

     celldm(1)=  14.760000  celldm(2)=   0.000000  celldm(3)=   0.000000
     celldm(4)=   0.000000  celldm(5)=   0.000000  celldm(6)=   0.000000

     crystal axes: (cart. coord. in units of alat)
               a(1) = (   1.000000   0.000000   0.000000 )  
               a(2) = (   0.000000   1.000000   0.000000 )  
               a(3) = (   0.000000   0.000000   1.000000 )  

     reciprocal axes: (cart. coord. in units 2 pi/alat)
               b(1) = (  1.000000  0.000000  0.000000 )  
               b(2) = (  0.000000  1.000000  0.000000 )  
               b(3) = (  0.000000  0.000000  1.000000 )  


     PseudoPot. # 1 for Sr read from file:
     /path/to/xspectra-tutorial/SrTiO3/Ti_Ledge_HCH_super/../pseudo/Sr.pbe-spn-kjpaw_psl.1.0.0.UPF
     MD5 check sum: a3c6d0287e6b0f325c5350c23079ab60
     Pseudo is Projector augmented-wave + core cor, Zval = 10.0
     Generated using &quot;atomic&quot; code by A. Dal Corso  v.6.2.2
     Shape of augmentation charge: PSQ
     Using radial grid of 1221 points,  6 beta functions with: 
                l(1) =   0
                l(2) =   0
                l(3) =   1
                l(4) =   1
                l(5) =   2
                l(6) =   2
     Q(r) pseudized with 0 coefficients 


     PseudoPot. # 2 for Ti read from file:
     /path/to/xspectra-tutorial/SrTiO3/Ti_Ledge_HCH_super/../pseudo/Ti.pbe-spn-kjpaw_psl.1.0.0-HCH.UPF
     MD5 check sum: 00aea6dbf1f88ca21253bd624058d280
     Pseudo is Projector augmented-wave + core cor, Zval = 12.5
     Generated using 'atomic' code by A. Dal Corso  v.7.5
     Shape of augmentation charge: BESSEL
     Using radial grid of 1177 points,  6 beta functions with: 
                l(1) =   0
                l(2) =   0
                l(3) =   1
                l(4) =   1
                l(5) =   2
                l(6) =   2
     Q(r) pseudized with 0 coefficients 


     PseudoPot. # 3 for Ti read from file:
     /path/to/xspectra-tutorial/SrTiO3/Ti_Ledge_HCH_super/../pseudo/Ti.pbe-spn-kjpaw_psl.1.0.0.UPF
     MD5 check sum: 01f69b0d8ba4438b2e03ac6ea4af1c0b
     Pseudo is Projector augmented-wave + core cor, Zval = 12.0
     Generated using &quot;atomic&quot; code by A. Dal Corso  v.6.2.2
     Shape of augmentation charge: PSQ
     Using radial grid of 1177 points,  6 beta functions with: 
                l(1) =   0
                l(2) =   0
                l(3) =   1
                l(4) =   1
                l(5) =   2
                l(6) =   2
     Q(r) pseudized with 0 coefficients 


     PseudoPot. # 4 for O  read from file:
     /path/to/xspectra-tutorial/SrTiO3/Ti_Ledge_HCH_super/../pseudo/O.pbe-n-kjpaw_psl.0.1.UPF
     MD5 check sum: 833c495a5d0f9b75bf046115549bffff
     Pseudo is Projector augmented-wave + core cor, Zval =  6.0
     Generated using &quot;atomic&quot; code by A. Dal Corso  v.6.3
     Shape of augmentation charge: BESSEL
     Using radial grid of 1095 points,  4 beta functions with: 
                l(1) =   0
                l(2) =   0
                l(3) =   1
                l(4) =   1
     Q(r) pseudized with 0 coefficients 


     atomic species   valence    mass     pseudopotential
     Sr               10.00    87.62000     Sr( 1.00)
     Tih              12.50    47.86700     Ti( 1.00)
     Ti               12.00    47.86700     Ti( 1.00)
     O                 6.00    15.99900     O ( 1.00)

     48 Sym. Ops., with inversion, found (42 have fractional translation)



   Cartesian axes

     site n.     atom                  positions (alat units)
         1        Sr     tau(   1) = (   0.0000000   0.0000000   0.0000000  )
         2        Sr     tau(   2) = (   0.5000000   0.0000000   0.0000000  )
         3        Sr     tau(   3) = (   0.0000000   0.5000000   0.0000000  )
         4        Sr     tau(   4) = (   0.0000000   0.0000000   0.5000000  )
         5        Sr     tau(   5) = (   0.5000000   0.5000000   0.0000000  )
         6        Sr     tau(   6) = (   0.5000000   0.0000000   0.5000000  )
         7        Sr     tau(   7) = (   0.0000000   0.5000000   0.5000000  )
         8        Sr     tau(   8) = (   0.5000000   0.5000000   0.5000000  )
         9        Tih    tau(   9) = (   0.2500000   0.2500000   0.2500000  )
        10        Ti     tau(  10) = (   0.7500000   0.2500000   0.2500000  )
        11        Ti     tau(  11) = (   0.2500000   0.7500000   0.2500000  )
        12        Ti     tau(  12) = (   0.2500000   0.2500000   0.7500000  )
        13        Ti     tau(  13) = (   0.7500000   0.7500000   0.2500000  )
        14        Ti     tau(  14) = (   0.7500000   0.2500000   0.7500000  )
        15        Ti     tau(  15) = (   0.2500000   0.7500000   0.7500000  )
        16        Ti     tau(  16) = (   0.7500000   0.7500000   0.7500000  )
        17        O      tau(  17) = (   0.2500000   0.2500000   0.0000000  )
        18        O      tau(  18) = (   0.2500000   0.0000000   0.2500000  )
        19        O      tau(  19) = (   0.0000000   0.2500000   0.2500000  )
        20        O      tau(  20) = (   0.7500000   0.2500000   0.0000000  )
        21        O      tau(  21) = (   0.7500000   0.0000000   0.2500000  )
        22        O      tau(  22) = (   0.5000000   0.2500000   0.2500000  )
        23        O      tau(  23) = (   0.2500000   0.7500000   0.0000000  )
        24        O      tau(  24) = (   0.2500000   0.5000000   0.2500000  )
        25        O      tau(  25) = (   0.0000000   0.7500000   0.2500000  )
        26        O      tau(  26) = (   0.2500000   0.2500000   0.5000000  )
        27        O      tau(  27) = (   0.2500000   0.0000000   0.7500000  )
        28        O      tau(  28) = (   0.0000000   0.2500000   0.7500000  )
        29        O      tau(  29) = (   0.7500000   0.7500000   0.0000000  )
        30        O      tau(  30) = (   0.7500000   0.5000000   0.2500000  )
        31        O      tau(  31) = (   0.5000000   0.7500000   0.2500000  )
        32        O      tau(  32) = (   0.7500000   0.2500000   0.5000000  )
        33        O      tau(  33) = (   0.7500000   0.0000000   0.7500000  )
        34        O      tau(  34) = (   0.5000000   0.2500000   0.7500000  )
        35        O      tau(  35) = (   0.2500000   0.7500000   0.5000000  )
        36        O      tau(  36) = (   0.2500000   0.5000000   0.7500000  )
        37        O      tau(  37) = (   0.0000000   0.7500000   0.7500000  )
        38        O      tau(  38) = (   0.7500000   0.7500000   0.5000000  )
        39        O      tau(  39) = (   0.7500000   0.5000000   0.7500000  )
        40        O      tau(  40) = (   0.5000000   0.7500000   0.7500000  )

     number of k points=     1  Methfessel-Paxton smearing, width (Ry)=  0.0100
                       cart. coord. in units 2pi/alat
        k(    1) = (   0.2500000   0.2500000   0.2500000), wk =   2.0000000

     Dense  grid:   798295 G-vectors     FFT dimensions: ( 120, 120, 120)

     Smooth grid:   177509 G-vectors     FFT dimensions: (  72,  72,  72)

     Estimated max dynamical RAM per process >     184.22 MB

     Estimated total dynamical RAM >       5.19 GB

     Check: negative core charge=   -0.000002

     Initial potential from superposition of free atoms

     starting charge     319.9286, renormalised to     320.0000
     Starting wfcs are  240 randomized atomic wfcs
     Checking if some PAW data can be deallocated... 

     total cpu time spent up to now is        2.3 secs

     Self-consistent Calculation

     iteration #  1     ecut=    55.00 Ry     beta= 0.30
     Davidson diagonalization with overlap
     ethr =  1.00E-02,  avg # of iterations =  8.0

     total cpu time spent up to now is        5.2 secs

     total energy              =   -4563.98431981 Ry
     estimated scf accuracy    <      13.86609293 Ry

     iteration #  2     ecut=    55.00 Ry     beta= 0.30
     Davidson diagonalization with overlap
     ethr =  4.33E-03,  avg # of iterations =  2.0

     total cpu time spent up to now is        7.3 secs

     total energy              =   -4566.05965833 Ry
     estimated scf accuracy    <       2.77135911 Ry

     iteration #  3     ecut=    55.00 Ry     beta= 0.30
     Davidson diagonalization with overlap
     ethr =  8.66E-04,  avg # of iterations =  3.0

     total cpu time spent up to now is        9.2 secs

     total energy              =   -4566.81484214 Ry
     estimated scf accuracy    <       1.26850099 Ry

     iteration #  4     ecut=    55.00 Ry     beta= 0.30
     Davidson diagonalization with overlap
     ethr =  3.96E-04,  avg # of iterations =  3.0

     total cpu time spent up to now is       11.2 secs

     total energy              =   -4566.82335015 Ry
     estimated scf accuracy    <       0.24730911 Ry

     iteration #  5     ecut=    55.00 Ry     beta= 0.30
     Davidson diagonalization with overlap
     ethr =  7.73E-05,  avg # of iterations = 16.0

     total cpu time spent up to now is       13.9 secs

     total energy              =   -4566.85360946 Ry
     estimated scf accuracy    <       0.09911127 Ry

     iteration #  6     ecut=    55.00 Ry     beta= 0.30
     Davidson diagonalization with overlap
     ethr =  3.10E-05,  avg # of iterations =  2.0

     total cpu time spent up to now is       15.7 secs

     total energy              =   -4566.86770361 Ry
     estimated scf accuracy    <       0.00981489 Ry

     iteration #  7     ecut=    55.00 Ry     beta= 0.30
     Davidson diagonalization with overlap
     ethr =  3.07E-06,  avg # of iterations =  5.0

     total cpu time spent up to now is       17.3 secs

     total energy              =   -4566.86848575 Ry
     estimated scf accuracy    <       0.00101599 Ry

     iteration #  8     ecut=    55.00 Ry     beta= 0.30
     Davidson diagonalization with overlap
     ethr =  3.17E-07,  avg # of iterations =  2.0

     total cpu time spent up to now is       18.9 secs

     total energy              =   -4566.86860705 Ry
     estimated scf accuracy    <       0.00065806 Ry

     iteration #  9     ecut=    55.00 Ry     beta= 0.30
     Davidson diagonalization with overlap
     ethr =  2.06E-07,  avg # of iterations =  2.0

     total cpu time spent up to now is       20.4 secs

     total energy              =   -4566.86874679 Ry
     estimated scf accuracy    <       0.00009607 Ry

     iteration # 10     ecut=    55.00 Ry     beta= 0.30
     Davidson diagonalization with overlap
     ethr =  3.00E-08,  avg # of iterations =  2.0

     total cpu time spent up to now is       21.9 secs

     total energy              =   -4566.86875155 Ry
     estimated scf accuracy    <       0.00002970 Ry

     iteration # 11     ecut=    55.00 Ry     beta= 0.30
     Davidson diagonalization with overlap
     ethr =  9.28E-09,  avg # of iterations =  2.0

     total cpu time spent up to now is       23.5 secs

     total energy              =   -4566.86875353 Ry
     estimated scf accuracy    <       0.00000573 Ry

     iteration # 12     ecut=    55.00 Ry     beta= 0.30
     Davidson diagonalization with overlap
     ethr =  1.79E-09,  avg # of iterations =  4.0

     total cpu time spent up to now is       25.0 secs

     total energy              =   -4566.86875463 Ry
     estimated scf accuracy    <       0.00000040 Ry

     iteration # 13     ecut=    55.00 Ry     beta= 0.30
     Davidson diagonalization with overlap
     ethr =  1.26E-10,  avg # of iterations =  4.0

     total cpu time spent up to now is       26.9 secs

     total energy              =   -4566.86875476 Ry
     estimated scf accuracy    <       0.00000007 Ry

     iteration # 14     ecut=    55.00 Ry     beta= 0.30
     Davidson diagonalization with overlap
     ethr =  2.18E-11,  avg # of iterations =  2.0

     total cpu time spent up to now is       28.5 secs

     total energy              =   -4566.86875478 Ry
     estimated scf accuracy    <       0.00000002 Ry

     iteration # 15     ecut=    55.00 Ry     beta= 0.30
     Davidson diagonalization with overlap
     ethr =  4.72E-12,  avg # of iterations =  2.0

     total cpu time spent up to now is       30.2 secs

     End of self-consistent calculation

          k = 0.2500 0.2500 0.2500 ( 22145 PWs)   bands (ev):

   -49.0417 -46.4185 -46.4185 -46.4185 -46.2940 -46.2940 -46.2940 -46.2302
   -25.1296 -25.1296 -25.1296 -22.7786 -22.7642 -22.7642 -22.7368 -22.7331
   -22.7331 -22.7185 -22.7185 -22.7078 -22.6594 -22.6441 -22.6342 -22.6342
   -22.6159 -22.6159 -22.5943 -22.5936 -22.5936 -22.5883 -22.5796 -22.5606
   -22.5606 -22.5544 -22.5463 -22.5463 -22.5273 -22.5079 -22.5069 -22.5069
    -7.5756  -7.4025  -7.4025  -7.2831  -7.0016  -6.9934  -6.9934  -6.6071
    -6.6071  -6.5887  -6.5225  -6.5225  -6.4263  -6.3582  -6.3150  -6.3150
    -6.3087  -6.2624  -6.2624  -6.2061  -6.2061  -6.1846  -6.1422  -6.1422
    -4.7508  -4.7508  -4.6205  -4.6205  -4.6163  -4.6138  -4.6065  -4.6065
    -4.5789  -4.5789  -4.5140  -4.4613  -4.4608  -4.4608  -4.4354  -4.3686
    -4.3686  -4.3539  -4.2757  -4.2617  -4.2617  -4.1988  -4.1821  -4.1821
     5.5054   5.5722   5.5722   5.7375   5.7375   5.7957   5.8239   5.9719
     5.9719   6.0075   6.0422   6.0422   6.1366   6.2134   6.2134   6.2495
     6.4541   6.4541   6.6497   6.6567   6.6567   6.6951   6.8799   6.8799
     6.9435   7.0197   7.0197   7.0434   7.0872   7.0872   7.1246   7.1540
     7.1540   7.1618   7.2032   7.2032   7.3305   7.3336   7.3336   7.8918
     7.8918   7.8919   8.1067   8.1067   8.3930   8.4043   8.4043   8.5832
     8.6584   8.6584   8.7175   8.7611   8.7611   8.7750   8.8508   8.8508
     8.8812   8.8968   8.8968   8.9149   8.9855   9.0049   9.0049   9.1237
     9.3040   9.3040   9.5586   9.5586   9.6743   9.7763   9.7763   9.8824
    11.7889  11.8105  11.8105  12.6048  12.6449  12.6449  13.0482  13.0954
    13.0954  13.5808  13.5808  13.5995  13.7116  13.7250  13.7250  13.7498
    13.7498  13.7723  14.0021  14.0061  14.0061  14.1480  14.1480  14.2250
    14.2479  14.2479  15.1188  15.1766  15.1766  15.6442  15.6442  15.7719
    16.2530  16.2530  16.4999  16.4999  16.6838  17.1314  17.3985  17.3985
    17.4063  17.4253  17.4253  17.5590  17.5678  17.5678  17.5930  17.6943
    17.6943  17.8988  17.9503  17.9621  17.9621  18.0478  18.0478  18.2916
    18.3005  18.3005  18.4680  18.4750  18.4750  18.7342  18.7342  18.7538
    18.7586  18.7653  18.7653  18.7856  18.7870  18.7870  18.9468  18.9481
    18.9481  19.1803  19.1803  19.1828  19.4054  19.4057  19.5654  19.5699

     the Fermi energy is    10.8993 ev

!    total energy              =   -4566.86875480 Ry
     total all-electron energy =    -68135.802046 Ry
     estimated scf accuracy    <          3.0E-09 Ry
     smearing contrib. (-TS)   =       0.00000000 Ry
     internal energy E=F+TS    =   -4566.86875480 Ry

     The total energy is F=E-TS. E is the sum of the following terms:
     one-electron contribution =    -592.48177352 Ry
     hartree contribution      =     490.85014245 Ry
     xc contribution           =    -472.77428552 Ry
     ewald contribution        =   -1705.89382128 Ry
     one-center paw contrib.   =   -2286.56901694 Ry

     convergence has been achieved in  15 iterations

     Writing all to output data dir ./tmp/SrTiO3_TiL_HCH_super.save/ :
     XML data file, charge density, pseudopotentials, collected wavefunctions

     init_run     :      1.57s CPU      1.80s WALL (       1 calls)
     electrons    :     24.52s CPU     27.91s WALL (       1 calls)

     Called by init_run:
     wfcinit      :      0.29s CPU      0.33s WALL (       1 calls)
     potinit      :      0.55s CPU      0.58s WALL (       1 calls)
     hinit0       :      0.24s CPU      0.29s WALL (       1 calls)

     Called by electrons:
     c_bands      :     12.49s CPU     13.28s WALL (      15 calls)
     sum_band     :      4.18s CPU      5.61s WALL (      15 calls)
     v_of_rho     :      1.19s CPU      1.24s WALL (      16 calls)
     newd         :      2.83s CPU      3.98s WALL (      16 calls)
     PAW_pot      :      4.17s CPU      4.19s WALL (      16 calls)
     mix_rho      :      0.11s CPU      0.13s WALL (      15 calls)

     Called by c_bands:
     init_us_2    :      0.14s CPU      0.17s WALL (      31 calls)
     cegterg      :     12.19s CPU     12.96s WALL (      15 calls)

     Called by *egterg:
     cdiaghg      :      2.81s CPU      2.82s WALL (      74 calls)
     h_psi        :      4.62s CPU      5.15s WALL (      75 calls)
     s_psi        :      0.92s CPU      0.92s WALL (      75 calls)
     g_psi        :      0.03s CPU      0.03s WALL (      59 calls)

     Called by h_psi:
     h_psi:calbec :      0.98s CPU      1.03s WALL (      75 calls)
     vloc_psi     :      2.68s CPU      3.10s WALL (      75 calls)
                                        0.00s GPU  (      75 calls)
     add_vuspsi   :      0.91s CPU      0.92s WALL (      75 calls)

     General routines
     calbec       :      1.39s CPU      1.45s WALL (      90 calls)
     fft          :      0.59s CPU      0.68s WALL (     206 calls)
     ffts         :      0.01s CPU      0.02s WALL (      31 calls)
     fftw         :      2.83s CPU      3.29s WALL (   19932 calls)
     interpolate  :      0.05s CPU      0.06s WALL (      16 calls)

     Parallel routines

     PWSCF        :     26.59s CPU     30.30s WALL


   This run was terminated on:  15:10:48  22Mar2026            

=------------------------------------------------------------------------------=
   JOB DONE.
=------------------------------------------------------------------------------=
Note: The following floating-point exceptions are signalling: IEEE_UNDERFLOW_FLAG IEEE_DENORMAL
Note: The following floating-point exceptions are signalling: IEEE_UNDERFLOW_FLAG IEEE_DENORMAL
Note: The following floating-point exceptions are signalling: IEEE_UNDERFLOW_FLAG IEEE_DENORMAL
Note: The following floating-point exceptions are signalling: IEEE_UNDERFLOW_FLAG IEEE_DENORMAL
Note: The following floating-point exceptions are signalling: IEEE_UNDERFLOW_FLAG IEEE_DENORMAL
Note: The following floating-point exceptions are signalling: IEEE_UNDERFLOW_FLAG IEEE_DENORMAL
Note: The following floating-point exceptions are signalling: IEEE_UNDERFLOW_FLAG IEEE_DENORMAL
Note: The following floating-point exceptions are signalling: IEEE_UNDERFLOW_FLAG IEEE_DENORMAL
Note: The following floating-point exceptions are signalling: IEEE_UNDERFLOW_FLAG IEEE_DENORMAL
Note: The following floating-point exceptions are signalling: IEEE_UNDERFLOW_FLAG IEEE_DENORMAL
Note: The following floating-point exceptions are signalling: IEEE_UNDERFLOW_FLAG IEEE_DENORMAL
Note: The following floating-point exceptions are signalling: IEEE_UNDERFLOW_FLAG IEEE_DENORMAL
Note: The following floating-point exceptions are signalling: IEEE_UNDERFLOW_FLAG IEEE_DENORMAL
Note: The following floating-point exceptions are signalling: IEEE_UNDERFLOW_FLAG IEEE_DENORMAL
Note: The following floating-point exceptions are signalling: IEEE_UNDERFLOW_FLAG IEEE_DENORMAL
Note: The following floating-point exceptions are signalling: IEEE_UNDERFLOW_FLAG IEEE_DENORMAL
Note: The following floating-point exceptions are signalling: IEEE_DIVIDE_BY_ZERO IEEE_UNDERFLOW_FLAG IEEE_DENORMAL
Note: The following floating-point exceptions are signalling: IEEE_UNDERFLOW_FLAG IEEE_DENORMAL
Note: The following floating-point exceptions are signalling: IEEE_UNDERFLOW_FLAG IEEE_DENORMAL
Note: The following floating-point exceptions are signalling: IEEE_UNDERFLOW_FLAG IEEE_DENORMAL
Note: The following floating-point exceptions are signalling: IEEE_UNDERFLOW_FLAG IEEE_DENORMAL
Note: The following floating-point exceptions are signalling: IEEE_UNDERFLOW_FLAG IEEE_DENORMAL
Note: The following floating-point exceptions are signalling: IEEE_UNDERFLOW_FLAG IEEE_DENORMAL
Note: The following floating-point exceptions are signalling: IEEE_UNDERFLOW_FLAG IEEE_DENORMAL
Note: The following floating-point exceptions are signalling: IEEE_UNDERFLOW_FLAG IEEE_DENORMAL
Note: The following floating-point exceptions are signalling: IEEE_UNDERFLOW_FLAG IEEE_DENORMAL
Note: The following floating-point exceptions are signalling: IEEE_UNDERFLOW_FLAG IEEE_DENORMAL
Note: The following floating-point exceptions are signalling: IEEE_UNDERFLOW_FLAG IEEE_DENORMAL
Note: The following floating-point exceptions are signalling: IEEE_UNDERFLOW_FLAG IEEE_DENORMAL
Note: The following floating-point exceptions are signalling: IEEE_UNDERFLOW_FLAG IEEE_DENORMAL
Note: The following floating-point exceptions are signalling: IEEE_UNDERFLOW_FLAG IEEE_DENORMAL
Note: The following floating-point exceptions are signalling: IEEE_UNDERFLOW_FLAG IEEE_DENORMAL
