
     Program PWSCF v.7.5 starts on 22Mar2026 at 13:36:30 

     This program is part of the open-source Quantum ESPRESSO suite
     for quantum simulation of materials; please cite
         "P. Giannozzi et al., J. Phys.:Condens. Matter 21 395502 (2009);
         "P. Giannozzi et al., J. Phys.:Condens. Matter 29 465901 (2017);
         "P. Giannozzi et al., J. Chem. Phys. 152 154105 (2020);
          URL http://www.quantum-espresso.org", 
     in publications or presentations arising from this work. More details at
     http://www.quantum-espresso.org/quote

     Parallel version (MPI), running on    32 processors

     MPI processes distributed on     1 nodes
     9121 MiB available memory on the printing compute node when the environment starts

     Waiting for input...
     Reading input from standard input

     Current dimensions of program PWSCF are:
     Max number of different atomic species (ntypx) = 10
     Max number of k-points (npk) =  40000
     Max angular momentum in pseudopotentials (lmaxx) =  4
     file Sr.pbe-spn-kjpaw_psl.1.0.0.UPF: wavefunction(s)  4P renormalized
     file Ti.pbe-spn-kjpaw_psl.1.0.0.UPF: wavefunction(s)  3S 3P 3D renormalized
     file O.pbe-n-kjpaw_psl.0.1.UPF: wavefunction(s)  2P renormalized
     file O.pbe-n-kjpaw_psl.0.1.UPF: wavefunction(s)  2P renormalized

     Exact exchange band parallelism type set to band_pairs


     K-points division:     npool     =      32
     Subspace diagonalization in iterative solution of the eigenvalue problem:
     a serial algorithm will be used

     Message from routine divide_et_impera:
     suboptimal parallelization: some nodes have no k-points

     G-vector sticks info
     --------------------
     sticks:   dense  smooth     PW     G-vecs:    dense   smooth      PW
     Sum        2593     949    277                99873    22119    3407

     Using Slab Decomposition



     bravais-lattice index     =            1
     lattice parameter (alat)  =       7.3800  a.u.
     unit-cell volume          =     401.9473 (a.u.)^3
     number of atoms/cell      =            5
     number of atomic types    =            4
     number of electrons       =        40.00
     number of Kohn-Sham states=           30
     kinetic-energy cutoff     =      55.0000  Ry
     charge density cutoff     =     600.0000  Ry
     scf convergence threshold =      1.0E-08
     mixing beta               =       0.3000
     number of iterations used =            8  plain     mixing
     Exchange-correlation= SLA  PW   PBX  PBC
                           (   1   4   3   4   0   0   0)

     celldm(1)=   7.380000  celldm(2)=   0.000000  celldm(3)=   0.000000
     celldm(4)=   0.000000  celldm(5)=   0.000000  celldm(6)=   0.000000

     crystal axes: (cart. coord. in units of alat)
               a(1) = (   1.000000   0.000000   0.000000 )  
               a(2) = (   0.000000   1.000000   0.000000 )  
               a(3) = (   0.000000   0.000000   1.000000 )  

     reciprocal axes: (cart. coord. in units 2 pi/alat)
               b(1) = (  1.000000  0.000000  0.000000 )  
               b(2) = (  0.000000  1.000000  0.000000 )  
               b(3) = (  0.000000  0.000000  1.000000 )  


     PseudoPot. # 1 for Sr read from file:
     /path/to/xspectra-tutorial/SrTiO3/O_Kedge/../pseudo/Sr.pbe-spn-kjpaw_psl.1.0.0.UPF
     MD5 check sum: a3c6d0287e6b0f325c5350c23079ab60
     Pseudo is Projector augmented-wave + core cor, Zval = 10.0
     Generated using &quot;atomic&quot; code by A. Dal Corso  v.6.2.2
     Shape of augmentation charge: PSQ
     Using radial grid of 1221 points,  6 beta functions with: 
                l(1) =   0
                l(2) =   0
                l(3) =   1
                l(4) =   1
                l(5) =   2
                l(6) =   2
     Q(r) pseudized with 0 coefficients 


     PseudoPot. # 2 for Ti read from file:
     /path/to/xspectra-tutorial/SrTiO3/O_Kedge/../pseudo/Ti.pbe-spn-kjpaw_psl.1.0.0.UPF
     MD5 check sum: 01f69b0d8ba4438b2e03ac6ea4af1c0b
     Pseudo is Projector augmented-wave + core cor, Zval = 12.0
     Generated using &quot;atomic&quot; code by A. Dal Corso  v.6.2.2
     Shape of augmentation charge: PSQ
     Using radial grid of 1177 points,  6 beta functions with: 
                l(1) =   0
                l(2) =   0
                l(3) =   1
                l(4) =   1
                l(5) =   2
                l(6) =   2
     Q(r) pseudized with 0 coefficients 


     PseudoPot. # 3 for O  read from file:
     /path/to/xspectra-tutorial/SrTiO3/O_Kedge/../pseudo/O.pbe-n-kjpaw_psl.0.1.UPF
     MD5 check sum: 833c495a5d0f9b75bf046115549bffff
     Pseudo is Projector augmented-wave + core cor, Zval =  6.0
     Generated using &quot;atomic&quot; code by A. Dal Corso  v.6.3
     Shape of augmentation charge: BESSEL
     Using radial grid of 1095 points,  4 beta functions with: 
                l(1) =   0
                l(2) =   0
                l(3) =   1
                l(4) =   1
     Q(r) pseudized with 0 coefficients 


     PseudoPot. # 4 for O  read from file:
     /path/to/xspectra-tutorial/SrTiO3/O_Kedge/../pseudo/O.pbe-n-kjpaw_psl.0.1.UPF
     MD5 check sum: 833c495a5d0f9b75bf046115549bffff
     Pseudo is Projector augmented-wave + core cor, Zval =  6.0
     Generated using &quot;atomic&quot; code by A. Dal Corso  v.6.3
     Shape of augmentation charge: BESSEL
     Using radial grid of 1095 points,  4 beta functions with: 
                l(1) =   0
                l(2) =   0
                l(3) =   1
                l(4) =   1
     Q(r) pseudized with 0 coefficients 


     atomic species   valence    mass     pseudopotential
     Sr               10.00    87.62000     Sr( 1.00)
     Ti               12.00    47.86700     Ti( 1.00)
     Oh                6.00    15.99900     O ( 1.00)
     O                 6.00    15.99900     O ( 1.00)

     16 Sym. Ops., with inversion, found



   Cartesian axes

     site n.     atom                  positions (alat units)
         1        Sr     tau(   1) = (   0.0000000   0.0000000   0.0000000  )
         2        Ti     tau(   2) = (   0.5000000   0.5000000   0.5000000  )
         3        Oh     tau(   3) = (   0.5000000   0.5000000   0.0000000  )
         4        O      tau(   4) = (   0.5000000   0.0000000   0.5000000  )
         5        O      tau(   5) = (   0.0000000   0.5000000   0.5000000  )

     number of k points=     6  Methfessel-Paxton smearing, width (Ry)=  0.0100
                       cart. coord. in units 2pi/alat
        k(    1) = (   0.1250000   0.1250000   0.1250000), wk =   0.2500000
        k(    2) = (   0.1250000   0.1250000   0.3750000), wk =   0.2500000
        k(    3) = (   0.1250000   0.3750000   0.3750000), wk =   0.5000000
        k(    4) = (   0.3750000   0.3750000   0.3750000), wk =   0.2500000
        k(    5) = (   0.1250000   0.3750000   0.1250000), wk =   0.5000000
        k(    6) = (   0.3750000   0.3750000   0.1250000), wk =   0.2500000

     Dense  grid:    99873 G-vectors     FFT dimensions: (  60,  60,  60)

     Smooth grid:    22119 G-vectors     FFT dimensions: (  36,  36,  36)

     Estimated max dynamical RAM per process >      87.00 MB

     Estimated total dynamical RAM >       1.98 GB

     Check: negative core charge=   -0.000002

     Initial potential from superposition of free atoms

     starting charge      39.9909, renormalised to      40.0000
     Starting wfcs are   30 randomized atomic wfcs
     Checking if some PAW data can be deallocated... 

     total cpu time spent up to now is        2.1 secs

     Self-consistent Calculation

     iteration #  1     ecut=    55.00 Ry     beta= 0.30
     Davidson diagonalization with overlap
     ethr =  1.00E-02,  avg # of iterations =  5.3

     total cpu time spent up to now is        2.3 secs

     total energy              =    -569.29607382 Ry
     estimated scf accuracy    <       1.79219014 Ry

     iteration #  2     ecut=    55.00 Ry     beta= 0.30
     Davidson diagonalization with overlap
     ethr =  4.48E-03,  avg # of iterations =  2.5

     total cpu time spent up to now is        2.6 secs

     total energy              =    -569.64283274 Ry
     estimated scf accuracy    <       0.10940701 Ry

     iteration #  3     ecut=    55.00 Ry     beta= 0.30
     Davidson diagonalization with overlap
     ethr =  2.74E-04,  avg # of iterations =  2.0

     total cpu time spent up to now is        2.9 secs

     total energy              =    -569.66080123 Ry
     estimated scf accuracy    <       0.02532283 Ry

     iteration #  4     ecut=    55.00 Ry     beta= 0.30
     Davidson diagonalization with overlap
     ethr =  6.33E-05,  avg # of iterations =  6.7

     total cpu time spent up to now is        3.3 secs

     total energy              =    -569.66231211 Ry
     estimated scf accuracy    <       0.00772194 Ry

     iteration #  5     ecut=    55.00 Ry     beta= 0.30
     Davidson diagonalization with overlap
     ethr =  1.93E-05,  avg # of iterations =  3.5

     total cpu time spent up to now is        3.6 secs

     total energy              =    -569.66289107 Ry
     estimated scf accuracy    <       0.00084962 Ry

     iteration #  6     ecut=    55.00 Ry     beta= 0.30
     Davidson diagonalization with overlap
     ethr =  2.12E-06,  avg # of iterations =  4.2

     total cpu time spent up to now is        3.9 secs

     total energy              =    -569.66306492 Ry
     estimated scf accuracy    <       0.00048193 Ry

     iteration #  7     ecut=    55.00 Ry     beta= 0.30
     Davidson diagonalization with overlap
     ethr =  1.20E-06,  avg # of iterations =  1.5

     total cpu time spent up to now is        4.1 secs

     total energy              =    -569.66316252 Ry
     estimated scf accuracy    <       0.00001860 Ry

     iteration #  8     ecut=    55.00 Ry     beta= 0.30
     Davidson diagonalization with overlap
     ethr =  4.65E-08,  avg # of iterations =  2.0

     total cpu time spent up to now is        4.4 secs

     total energy              =    -569.66316149 Ry
     estimated scf accuracy    <       0.00000795 Ry

     iteration #  9     ecut=    55.00 Ry     beta= 0.30
     Davidson diagonalization with overlap
     ethr =  1.99E-08,  avg # of iterations =  2.0

     total cpu time spent up to now is        4.6 secs

     total energy              =    -569.66316346 Ry
     estimated scf accuracy    <       0.00000291 Ry

     iteration # 10     ecut=    55.00 Ry     beta= 0.30
     Davidson diagonalization with overlap
     ethr =  7.27E-09,  avg # of iterations =  1.0

     total cpu time spent up to now is        4.8 secs

     total energy              =    -569.66316369 Ry
     estimated scf accuracy    <       0.00000023 Ry

     iteration # 11     ecut=    55.00 Ry     beta= 0.30
     Davidson diagonalization with overlap
     ethr =  5.86E-10,  avg # of iterations =  2.0

     total cpu time spent up to now is        5.1 secs

     total energy              =    -569.66316375 Ry
     estimated scf accuracy    <       0.00000003 Ry

     iteration # 12     ecut=    55.00 Ry     beta= 0.30
     Davidson diagonalization with overlap
     ethr =  7.68E-11,  avg # of iterations =  2.0

     total cpu time spent up to now is        5.3 secs

     End of self-consistent calculation

          k = 0.1250 0.1250 0.1250 (  2788 PWs)   bands (ev):

   -46.3345 -22.7069 -22.6118 -22.6118 -22.5675  -7.3335  -6.3916  -6.3916
    -4.6138  -4.6138  -4.4681   6.7747   7.1594   7.1594   8.1590   8.1590
     8.7958   9.0413   9.3041   9.3041  12.4822  12.5688  12.5688  15.1360
    15.1360  16.2249  16.2249  17.1164  18.7476  18.7589

          k = 0.1250 0.1250 0.3750 (  2757 PWs)   bands (ev):

   -46.3334 -22.7464 -22.6134 -22.6096 -22.5590  -7.3757  -6.3169  -6.2459
    -4.6564  -4.4912  -4.2135   5.9451   6.7526   7.1313   7.1820   7.3443
     8.4530   8.8129   8.8760   9.0860  12.6379  13.6604  13.6670  15.1295
    16.7260  17.3822  17.5400  18.4448  18.7612  19.1643

          k = 0.1250 0.3750 0.3750 (  2777 PWs)   bands (ev):

   -46.3324 -22.7017 -22.6608 -22.6090 -22.5909  -6.9498  -6.4410  -6.2529
    -4.6464  -4.3873  -4.2913   5.7252   5.9785   6.1344   6.9734   7.1309
     7.9420   8.7638   8.8464   9.7528  13.6969  13.7524  14.0983  15.8288
    17.9084  17.9385  18.2799  18.7249  18.9262  19.5439

          k = 0.3750 0.3750 0.3750 (  2755 PWs)   bands (ev):

   -46.3313 -22.6723 -22.6582 -22.6582 -22.6062  -6.4877  -6.1500  -6.1500
    -4.7826  -4.7826  -4.5377   5.7626   6.1553   6.1553   6.2699   6.4926
     6.4926   9.6529   9.6529   9.8664  14.2251  14.2544  14.2544  17.5265
    17.5265  17.5759  18.0443  18.0443  19.3744  19.3744

          k = 0.1250 0.3750 0.1250 (  2757 PWs)   bands (ev):

   -46.3334 -22.7464 -22.6134 -22.6096 -22.5590  -7.3757  -6.3169  -6.2459
    -4.6564  -4.4912  -4.2135   5.9451   6.7526   7.1313   7.1820   7.3443
     8.4530   8.8129   8.8760   9.0860  12.6379  13.6604  13.6670  15.1295
    16.7260  17.3822  17.5400  18.4448  18.7612  19.1643

          k = 0.3750 0.3750 0.1250 (  2777 PWs)   bands (ev):

   -46.3324 -22.7017 -22.6608 -22.6090 -22.5909  -6.9498  -6.4410  -6.2529
    -4.6464  -4.3873  -4.2913   5.7252   5.9785   6.1344   6.9734   7.1309
     7.9420   8.7638   8.8464   9.7528  13.6969  13.7524  14.0983  15.8288
    17.9084  17.9385  18.2799  18.7249  18.9262  19.5439

     the Fermi energy is    11.2577 ev

!    total energy              =    -569.66316377 Ry
     total all-electron energy =     -8518.985999 Ry
     estimated scf accuracy    <          4.7E-10 Ry
     smearing contrib. (-TS)   =       0.00000000 Ry
     internal energy E=F+TS    =    -569.66316377 Ry

     The total energy is F=E-TS. E is the sum of the following terms:
     one-electron contribution =     -72.79815263 Ry
     hartree contribution      =      60.67075168 Ry
     xc contribution           =     -59.50571774 Ry
     ewald contribution        =    -212.48895711 Ry
     one-center paw contrib.   =    -285.54108797 Ry

     convergence has been achieved in  12 iterations

     Writing all to output data dir ./tmp/SrTiO3_OK.save/ :
     XML data file, charge density, pseudopotentials, collected wavefunctions

     init_run     :      1.53s CPU      1.65s WALL (       1 calls)
     electrons    :      3.10s CPU      3.25s WALL (       1 calls)

     Called by init_run:
     wfcinit      :      0.02s CPU      0.02s WALL (       1 calls)
     potinit      :      0.39s CPU      0.42s WALL (       1 calls)
     hinit0       :      1.05s CPU      1.13s WALL (       1 calls)

     Called by electrons:
     c_bands      :      0.62s CPU      0.62s WALL (      12 calls)
     sum_band     :      0.54s CPU      0.57s WALL (      12 calls)
     v_of_rho     :      0.87s CPU      0.97s WALL (      13 calls)
     newd         :      0.31s CPU      0.32s WALL (      13 calls)
     PAW_pot      :      0.74s CPU      0.77s WALL (      13 calls)
     mix_rho      :      0.06s CPU      0.06s WALL (      12 calls)

     Called by c_bands:
     init_us_2    :      0.03s CPU      0.03s WALL (      25 calls)
     cegterg      :      0.44s CPU      0.44s WALL (      12 calls)

     Called by *egterg:
     cdiaghg      :      0.03s CPU      0.03s WALL (      42 calls)
     h_psi        :      0.31s CPU      0.31s WALL (      43 calls)
     s_psi        :      0.02s CPU      0.02s WALL (      43 calls)
     g_psi        :      0.00s CPU      0.00s WALL (      30 calls)

     Called by h_psi:
     h_psi:calbec :      0.02s CPU      0.02s WALL (      43 calls)
     vloc_psi     :      0.26s CPU      0.26s WALL (      43 calls)
                                        0.00s GPU  (      43 calls)
     add_vuspsi   :      0.02s CPU      0.02s WALL (      43 calls)

     General routines
     calbec       :      0.03s CPU      0.03s WALL (      55 calls)
     fft          :      0.14s CPU      0.20s WALL (     167 calls)
     ffts         :      0.00s CPU      0.00s WALL (      25 calls)
     fftw         :      0.24s CPU      0.24s WALL (    2052 calls)
     interpolate  :      0.02s CPU      0.02s WALL (      13 calls)

     Parallel routines

     PWSCF        :      5.04s CPU      5.34s WALL


   This run was terminated on:  13:36:35  22Mar2026            

=------------------------------------------------------------------------------=
   JOB DONE.
=------------------------------------------------------------------------------=
Note: The following floating-point exceptions are signalling: IEEE_DIVIDE_BY_ZERO
Note: The following floating-point exceptions are signalling: IEEE_DIVIDE_BY_ZERO
Note: The following floating-point exceptions are signalling: IEEE_DIVIDE_BY_ZERO
Note: The following floating-point exceptions are signalling: IEEE_DIVIDE_BY_ZERO IEEE_UNDERFLOW_FLAG IEEE_DENORMAL
Note: The following floating-point exceptions are signalling: IEEE_DIVIDE_BY_ZERO
Note: The following floating-point exceptions are signalling: IEEE_DIVIDE_BY_ZERO
