
     Program PWSCF v.7.5 starts on 22Mar2026 at 12:56:37 

     This program is part of the open-source Quantum ESPRESSO suite
     for quantum simulation of materials; please cite
         "P. Giannozzi et al., J. Phys.:Condens. Matter 21 395502 (2009);
         "P. Giannozzi et al., J. Phys.:Condens. Matter 29 465901 (2017);
         "P. Giannozzi et al., J. Chem. Phys. 152 154105 (2020);
          URL http://www.quantum-espresso.org", 
     in publications or presentations arising from this work. More details at
     http://www.quantum-espresso.org/quote

     Parallel version (MPI), running on     1 processors

     MPI processes distributed on     1 nodes
     8967 MiB available memory on the printing compute node when the environment starts

     Waiting for input...
     Reading input from standard input

     Current dimensions of program PWSCF are:
     Max number of different atomic species (ntypx) = 10
     Max number of k-points (npk) =  40000
     Max angular momentum in pseudopotentials (lmaxx) =  4

     Exact exchange band parallelism type set to band_pairs


     Subspace diagonalization in iterative solution of the eigenvalue problem:
     a serial algorithm will be used


     G-vector sticks info
     --------------------
     sticks:   dense  smooth     PW     G-vecs:    dense   smooth      PW
     Sum         577     577    185                10443    10443    1863

     Using Slab Decomposition



     bravais-lattice index     =            1
     lattice parameter (alat)  =       6.7403  a.u.
     unit-cell volume          =     306.2169 (a.u.)^3
     number of atoms/cell      =            8
     number of atomic types    =            2
     number of electrons       =        32.00
     number of Kohn-Sham states=           16
     kinetic-energy cutoff     =      40.0000  Ry
     charge density cutoff     =     160.0000  Ry
     scf convergence threshold =      1.0E-06
     mixing beta               =       0.3000
     number of iterations used =            8  plain     mixing
     Exchange-correlation=  SLA  PW   PBX  PBC
                           (   1   4   3   4   0   0   0)

     celldm(1)=   6.740256  celldm(2)=   0.000000  celldm(3)=   0.000000
     celldm(4)=   0.000000  celldm(5)=   0.000000  celldm(6)=   0.000000

     crystal axes: (cart. coord. in units of alat)
               a(1) = (   1.000000   0.000000   0.000000 )  
               a(2) = (   0.000000   1.000000   0.000000 )  
               a(3) = (   0.000000   0.000000   1.000000 )  

     reciprocal axes: (cart. coord. in units 2 pi/alat)
               b(1) = (  1.000000  0.000000  0.000000 )  
               b(2) = (  0.000000  1.000000  0.000000 )  
               b(3) = (  0.000000  0.000000  1.000000 )  


     PseudoPot. # 1 for C  read from file:
     $QE_ROOT/XSpectra/examples/pseudo/Ch_PBE_TM_2pj.UPF
     MD5 check sum: ef0cb3dee31bd9e4ba2a832a2c716264
     Pseudo is Norm-conserving, Zval =  5.0
     Generated by new atomic code, or converted to UPF format
     Using radial grid of 1073 points,  1 beta functions with: 
                l(1) =   0

     PseudoPot. # 2 for C  read from file:
     $QE_ROOT/XSpectra/examples/pseudo/C_PBE_TM_2pj.UPF
     MD5 check sum: e8858615eb0a4b79f05373b4879fdf67
     Pseudo is Norm-conserving, Zval =  4.0
     Generated by new atomic code, or converted to UPF format
     Using radial grid of 1073 points,  1 beta functions with: 
                l(1) =   0

     atomic species   valence    mass     pseudopotential
     C_h               5.00    12.00000     C ( 1.00)
     C                 4.00    12.00000     C ( 1.00)

     24 Sym. Ops. (no inversion) found



   Cartesian axes

     site n.     atom                  positions (alat units)
         1        C_h    tau(   1) = (   0.0000000   0.0000000   0.0000000  )
         2        C      tau(   2) = (   0.0000000   0.5000000   0.5000000  )
         3        C      tau(   3) = (   0.5000000   0.0000000   0.5000000  )
         4        C      tau(   4) = (   0.5000000   0.5000000   0.0000000  )
         5        C      tau(   5) = (   0.7500000   0.7500000   0.2500000  )
         6        C      tau(   6) = (   0.7500000   0.2500000   0.7500000  )
         7        C      tau(   7) = (   0.2500000   0.7500000   0.7500000  )
         8        C      tau(   8) = (   0.2500000   0.2500000   0.2500000  )

     number of k points=    10
                       cart. coord. in units 2pi/alat
        k(    1) = (   0.0000000   0.0000000   0.0000000), wk =   0.0312500
        k(    2) = (   0.0000000   0.0000000   0.2500000), wk =   0.1875000
        k(    3) = (   0.0000000   0.0000000  -0.5000000), wk =   0.0937500
        k(    4) = (   0.0000000   0.2500000   0.2500000), wk =   0.3750000
        k(    5) = (   0.0000000   0.2500000  -0.5000000), wk =   0.3750000
        k(    6) = (   0.0000000  -0.5000000  -0.5000000), wk =   0.0937500
        k(    7) = (   0.2500000   0.2500000   0.2500000), wk =   0.2500000
        k(    8) = (   0.2500000   0.2500000  -0.5000000), wk =   0.3750000
        k(    9) = (   0.2500000  -0.5000000  -0.5000000), wk =   0.1875000
        k(   10) = (  -0.5000000  -0.5000000  -0.5000000), wk =   0.0312500

     Dense  grid:    10443 G-vectors     FFT dimensions: (  27,  27,  27)

     Estimated max dynamical RAM per process >      11.03 MB

     Initial potential from superposition of free atoms

     starting charge      28.0000, renormalised to      32.0000
     Starting wfcs are   64 randomized atomic wfcs

     total cpu time spent up to now is        0.6 secs

     Self-consistent Calculation

     iteration #  1     ecut=    40.00 Ry     beta= 0.30
     Davidson diagonalization with overlap
     ethr =  1.00E-02,  avg # of iterations =  2.0

     total cpu time spent up to now is        0.7 secs

     total energy              =     -99.93785482 Ry
     estimated scf accuracy    <       0.75059288 Ry

     iteration #  2     ecut=    40.00 Ry     beta= 0.30
     Davidson diagonalization with overlap
     ethr =  2.35E-03,  avg # of iterations =  2.0

     total cpu time spent up to now is        0.8 secs

     total energy              =    -100.02297602 Ry
     estimated scf accuracy    <       0.09147157 Ry

     iteration #  3     ecut=    40.00 Ry     beta= 0.30
     Davidson diagonalization with overlap
     ethr =  2.86E-04,  avg # of iterations =  3.6

     total cpu time spent up to now is        1.0 secs

     total energy              =    -100.04043984 Ry
     estimated scf accuracy    <       0.03854219 Ry

     iteration #  4     ecut=    40.00 Ry     beta= 0.30
     Davidson diagonalization with overlap
     ethr =  1.20E-04,  avg # of iterations =  4.1

     total cpu time spent up to now is        1.1 secs

     total energy              =    -100.02486138 Ry
     estimated scf accuracy    <       0.14090199 Ry

     iteration #  5     ecut=    40.00 Ry     beta= 0.30
     Davidson diagonalization with overlap
     ethr =  1.20E-04,  avg # of iterations =  3.2

     total cpu time spent up to now is        1.3 secs

     total energy              =    -100.04719813 Ry
     estimated scf accuracy    <       0.00172264 Ry

     iteration #  6     ecut=    40.00 Ry     beta= 0.30
     Davidson diagonalization with overlap
     ethr =  5.38E-06,  avg # of iterations =  4.3

     total cpu time spent up to now is        1.5 secs

     total energy              =    -100.04845006 Ry
     estimated scf accuracy    <       0.00112510 Ry

     iteration #  7     ecut=    40.00 Ry     beta= 0.30
     Davidson diagonalization with overlap
     ethr =  3.52E-06,  avg # of iterations =  2.0

     total cpu time spent up to now is        1.6 secs

     total energy              =    -100.04858047 Ry
     estimated scf accuracy    <       0.00006386 Ry

     iteration #  8     ecut=    40.00 Ry     beta= 0.30
     Davidson diagonalization with overlap
     ethr =  2.00E-07,  avg # of iterations =  4.4

     total cpu time spent up to now is        1.7 secs

     total energy              =    -100.04860898 Ry
     estimated scf accuracy    <       0.00000718 Ry

     iteration #  9     ecut=    40.00 Ry     beta= 0.30
     Davidson diagonalization with overlap
     ethr =  2.24E-08,  avg # of iterations =  4.0

     total cpu time spent up to now is        1.9 secs

     total energy              =    -100.04861297 Ry
     estimated scf accuracy    <       0.00000917 Ry

     iteration # 10     ecut=    40.00 Ry     beta= 0.30
     Davidson diagonalization with overlap
     ethr =  2.24E-08,  avg # of iterations =  1.8

     total cpu time spent up to now is        2.0 secs

     total energy              =    -100.04861149 Ry
     estimated scf accuracy    <       0.00000360 Ry

     iteration # 11     ecut=    40.00 Ry     beta= 0.30
     Davidson diagonalization with overlap
     ethr =  1.13E-08,  avg # of iterations =  2.8

     total cpu time spent up to now is        2.1 secs

     End of self-consistent calculation

          k = 0.0000 0.0000 0.0000 (  1357 PWs)   bands (ev):

    -8.4839  -1.3571   0.2832   0.2832   0.2832   0.9218   0.9218   5.9448
     5.9448   5.9448   7.2763   7.2763   7.2763  12.7946  12.7946  12.7946

          k = 0.0000 0.0000 0.2500 (  1298 PWs)   bands (ev):

    -7.9443  -3.4882  -0.2418   0.6081   0.6081   1.2692   4.1007   5.4119
     5.4589   5.4589   6.2909   7.3882   7.3882  11.2391  11.2391  11.5377

          k = 0.0000 0.0000-0.5000 (  1278 PWs)   bands (ev):

    -6.7834  -5.6073   0.0643   1.0168   1.0168   1.7272   4.1113   4.6676
     4.6676   5.2883   8.2614   8.3439   8.3439   8.6868   9.4684   9.4684

          k = 0.0000 0.2500 0.2500 (  1298 PWs)   bands (ev):

    -7.4156  -3.3712  -2.4786   0.0672   1.2213   3.1903   3.9492   4.2127
     5.8071   6.1456   6.4396   7.5824   7.7774   9.1057   9.8666  12.1181

          k = 0.0000 0.2500-0.5000 (  1304 PWs)   bands (ev):

    -6.3115  -5.0554  -1.9282  -0.9705   2.3487   2.5008   3.7370   4.5705
     6.1570   6.4946   6.8617   7.4095   7.9778   8.0405  10.1621  10.1880

          k = 0.0000-0.5000-0.5000 (  1308 PWs)   bands (ev):

    -5.4718  -3.5572  -3.5572  -3.3074   3.3485   3.9438   4.2287   4.2287
     5.5515   5.7064   5.7064   5.9388   9.2572   9.2572  10.5142  10.5637

          k = 0.2500 0.2500 0.2500 (  1304 PWs)   bands (ev):

    -6.9005  -3.2409  -2.0088  -2.0088   2.0576   2.3343   2.3343   4.9436
     6.6345   6.6345   6.7483   7.7069   7.7069   8.6921  11.2550  11.2550

          k = 0.2500 0.2500-0.5000 (  1324 PWs)   bands (ev):

    -5.8660  -4.5134  -2.1053  -1.1871   0.7611   0.7944   3.5091   4.2310
     5.9883   7.2952   7.6544   7.7674   9.3379   9.8614  10.0231  10.0393

          k = 0.2500-0.5000-0.5000 (  1312 PWs)   bands (ev):

    -5.1241  -3.0653  -3.0653  -2.8542   0.8644   1.6488   1.6488   2.0983
     7.1774   8.0311   8.0311   9.0422   9.7078   9.7078  10.6217  10.6627

          k =-0.5000-0.5000-0.5000 (  1328 PWs)   bands (ev):

    -4.6511  -2.1716  -2.1716  -2.1716  -0.2013  -0.2013  -0.2013   0.1090
     8.7446   8.7446   8.7446  10.7301  10.7301  10.7301  10.7586  10.7586

     highest occupied level (ev):    12.7946

!    total energy              =    -100.04861256 Ry
     estimated scf accuracy    <       0.00000009 Ry

     The total energy is the sum of the following terms:
     one-electron contribution =      28.80936733 Ry
     hartree contribution      =       9.10157530 Ry
     xc contribution           =     -28.84770076 Ry
     ewald contribution        =    -109.11185443 Ry

     convergence has been achieved in  11 iterations

     Writing all to output data dir ./tmp/diamondh.save/ :
     XML data file, charge density, pseudopotentials, collected wavefunctions

     init_run     :      0.39s CPU      0.44s WALL (       1 calls)
     electrons    :      1.56s CPU      1.56s WALL (       1 calls)

     Called by init_run:
     wfcinit      :      0.24s CPU      0.24s WALL (       1 calls)
     potinit      :      0.07s CPU      0.07s WALL (       1 calls)
     hinit0       :      0.08s CPU      0.13s WALL (       1 calls)

     Called by electrons:
     c_bands      :      1.29s CPU      1.30s WALL (      11 calls)
     sum_band     :      0.19s CPU      0.19s WALL (      11 calls)
     v_of_rho     :      0.07s CPU      0.07s WALL (      12 calls)
     mix_rho      :      0.01s CPU      0.01s WALL (      11 calls)

     Called by c_bands:
     init_us_2    :      0.02s CPU      0.02s WALL (     230 calls)
     cegterg      :      1.27s CPU      1.27s WALL (     110 calls)

     Called by *egterg:
     cdiaghg      :      0.10s CPU      0.10s WALL (     452 calls)
     h_psi        :      1.16s CPU      1.16s WALL (     462 calls)
     g_psi        :      0.02s CPU      0.02s WALL (     342 calls)

     Called by h_psi:
     h_psi:calbec :      0.03s CPU      0.03s WALL (     462 calls)
     vloc_psi     :      1.10s CPU      1.11s WALL (     462 calls)
                                        0.00s GPU  (     462 calls)
     add_vuspsi   :      0.01s CPU      0.01s WALL (     462 calls)

     General routines
     calbec       :      0.03s CPU      0.03s WALL (     462 calls)
     fft          :      0.02s CPU      0.07s WALL (     119 calls)
     ffts         :      0.00s CPU      0.00s WALL (      11 calls)
     fftw         :      1.07s CPU      1.07s WALL (   13408 calls)

     Parallel routines

     PWSCF        :      2.08s CPU      2.15s WALL


   This run was terminated on:  12:56:39  22Mar2026            

=------------------------------------------------------------------------------=
   JOB DONE.
=------------------------------------------------------------------------------=
Note: The following floating-point exceptions are signalling: IEEE_DIVIDE_BY_ZERO IEEE_UNDERFLOW_FLAG IEEE_DENORMAL
