
     Program PWSCF v.7.5 starts on 22Mar2026 at 12:56:23 

     This program is part of the open-source Quantum ESPRESSO suite
     for quantum simulation of materials; please cite
         "P. Giannozzi et al., J. Phys.:Condens. Matter 21 395502 (2009);
         "P. Giannozzi et al., J. Phys.:Condens. Matter 29 465901 (2017);
         "P. Giannozzi et al., J. Chem. Phys. 152 154105 (2020);
          URL http://www.quantum-espresso.org", 
     in publications or presentations arising from this work. More details at
     http://www.quantum-espresso.org/quote

     Parallel version (MPI), running on     1 processors

     MPI processes distributed on     1 nodes
     8642 MiB available memory on the printing compute node when the environment starts

     Waiting for input...
     Reading input from standard input

     Current dimensions of program PWSCF are:
     Max number of different atomic species (ntypx) = 10
     Max number of k-points (npk) =  40000
     Max angular momentum in pseudopotentials (lmaxx) =  4

     Exact exchange band parallelism type set to band_pairs


     Subspace diagonalization in iterative solution of the eigenvalue problem:
     a serial algorithm will be used


     G-vector sticks info
     --------------------
     sticks:   dense  smooth     PW     G-vecs:    dense   smooth      PW
     Sum         577     577    185                10443    10443    1863

     Using Slab Decomposition



     bravais-lattice index     =            1
     lattice parameter (alat)  =       6.7403  a.u.
     unit-cell volume          =     306.2169 (a.u.)^3
     number of atoms/cell      =            8
     number of atomic types    =            2
     number of electrons       =        32.00
     number of Kohn-Sham states=           16
     kinetic-energy cutoff     =      40.0000  Ry
     charge density cutoff     =     160.0000  Ry
     scf convergence threshold =      1.0E-06
     mixing beta               =       0.3000
     number of iterations used =            8  plain     mixing
     Exchange-correlation=  SLA  PW   PBX  PBC
                           (   1   4   3   4   0   0   0)

     celldm(1)=   6.740256  celldm(2)=   0.000000  celldm(3)=   0.000000
     celldm(4)=   0.000000  celldm(5)=   0.000000  celldm(6)=   0.000000

     crystal axes: (cart. coord. in units of alat)
               a(1) = (   1.000000   0.000000   0.000000 )  
               a(2) = (   0.000000   1.000000   0.000000 )  
               a(3) = (   0.000000   0.000000   1.000000 )  

     reciprocal axes: (cart. coord. in units 2 pi/alat)
               b(1) = (  1.000000  0.000000  0.000000 )  
               b(2) = (  0.000000  1.000000  0.000000 )  
               b(3) = (  0.000000  0.000000  1.000000 )  


     PseudoPot. # 1 for C  read from file:
     $QE_ROOT/XSpectra/examples/pseudo/C_PBE_TM_2pj.UPF
     MD5 check sum: e8858615eb0a4b79f05373b4879fdf67
     Pseudo is Norm-conserving, Zval =  4.0
     Generated by new atomic code, or converted to UPF format
     Using radial grid of 1073 points,  1 beta functions with: 
                l(1) =   0

     PseudoPot. # 2 for C  read from file:
     $QE_ROOT/XSpectra/examples/pseudo/C_PBE_TM_2pj.UPF
     MD5 check sum: e8858615eb0a4b79f05373b4879fdf67
     Pseudo is Norm-conserving, Zval =  4.0
     Generated by new atomic code, or converted to UPF format
     Using radial grid of 1073 points,  1 beta functions with: 
                l(1) =   0

     atomic species   valence    mass     pseudopotential
     C_h               4.00    12.00000     C ( 1.00)
     C                 4.00    12.00000     C ( 1.00)

     24 Sym. Ops. (no inversion) found



   Cartesian axes

     site n.     atom                  positions (alat units)
         1        C_h    tau(   1) = (   0.0000000   0.0000000   0.0000000  )
         2        C      tau(   2) = (   0.0000000   0.5000000   0.5000000  )
         3        C      tau(   3) = (   0.5000000   0.0000000   0.5000000  )
         4        C      tau(   4) = (   0.5000000   0.5000000   0.0000000  )
         5        C      tau(   5) = (   0.7500000   0.7500000   0.2500000  )
         6        C      tau(   6) = (   0.7500000   0.2500000   0.7500000  )
         7        C      tau(   7) = (   0.2500000   0.7500000   0.7500000  )
         8        C      tau(   8) = (   0.2500000   0.2500000   0.2500000  )

     number of k points=    10
                       cart. coord. in units 2pi/alat
        k(    1) = (   0.0000000   0.0000000   0.0000000), wk =   0.0312500
        k(    2) = (   0.0000000   0.0000000   0.2500000), wk =   0.1875000
        k(    3) = (   0.0000000   0.0000000  -0.5000000), wk =   0.0937500
        k(    4) = (   0.0000000   0.2500000   0.2500000), wk =   0.3750000
        k(    5) = (   0.0000000   0.2500000  -0.5000000), wk =   0.3750000
        k(    6) = (   0.0000000  -0.5000000  -0.5000000), wk =   0.0937500
        k(    7) = (   0.2500000   0.2500000   0.2500000), wk =   0.2500000
        k(    8) = (   0.2500000   0.2500000  -0.5000000), wk =   0.3750000
        k(    9) = (   0.2500000  -0.5000000  -0.5000000), wk =   0.1875000
        k(   10) = (  -0.5000000  -0.5000000  -0.5000000), wk =   0.0312500

     Dense  grid:    10443 G-vectors     FFT dimensions: (  27,  27,  27)

     Estimated max dynamical RAM per process >      11.03 MB

     Initial potential from superposition of free atoms

     starting charge      28.0000, renormalised to      32.0000
     Starting wfcs are   64 randomized atomic wfcs

     total cpu time spent up to now is        0.6 secs

     Self-consistent Calculation

     iteration #  1     ecut=    40.00 Ry     beta= 0.30
     Davidson diagonalization with overlap
     ethr =  1.00E-02,  avg # of iterations =  2.0

     Threshold (ethr) on eigenvalues was too large:
     Diagonalizing with lowered threshold

     Davidson diagonalization with overlap
     ethr =  4.47E-04,  avg # of iterations =  1.0

     total cpu time spent up to now is        0.8 secs

     total energy              =     -91.08175950 Ry
     estimated scf accuracy    <       0.14672542 Ry

     iteration #  2     ecut=    40.00 Ry     beta= 0.30
     Davidson diagonalization with overlap
     ethr =  4.59E-04,  avg # of iterations =  1.0

     total cpu time spent up to now is        0.9 secs

     total energy              =     -91.07557724 Ry
     estimated scf accuracy    <       0.06451666 Ry

     iteration #  3     ecut=    40.00 Ry     beta= 0.30
     Davidson diagonalization with overlap
     ethr =  2.02E-04,  avg # of iterations =  1.0

     total cpu time spent up to now is        1.0 secs

     total energy              =     -91.07920019 Ry
     estimated scf accuracy    <       0.00076244 Ry

     iteration #  4     ecut=    40.00 Ry     beta= 0.30
     Davidson diagonalization with overlap
     ethr =  2.38E-06,  avg # of iterations =  2.1

     total cpu time spent up to now is        1.1 secs

     total energy              =     -91.07935987 Ry
     estimated scf accuracy    <       0.00009693 Ry

     iteration #  5     ecut=    40.00 Ry     beta= 0.30
     Davidson diagonalization with overlap
     ethr =  3.03E-07,  avg # of iterations =  2.3

     total cpu time spent up to now is        1.3 secs

     total energy              =     -91.07937325 Ry
     estimated scf accuracy    <       0.00000108 Ry

     iteration #  6     ecut=    40.00 Ry     beta= 0.30
     Davidson diagonalization with overlap
     ethr =  3.38E-09,  avg # of iterations =  4.5

     total cpu time spent up to now is        1.4 secs

     End of self-consistent calculation

          k = 0.0000 0.0000 0.0000 (  1357 PWs)   bands (ev):

    -8.1117   0.6224   0.6226   0.6226   0.6227   0.6227   0.6227   7.0450
     7.0450   7.0450   7.0451   7.0451   7.0451  13.3364  13.3364  13.3364

          k = 0.0000 0.0000 0.2500 (  1298 PWs)   bands (ev):

    -7.5328  -3.0362   0.9675   0.9677   0.9678   0.9678   4.8040   6.0518
     6.0519   6.0519   6.0519   7.6145   7.6145  11.6230  11.6230  12.0475

          k = 0.0000 0.0000-0.5000 (  1278 PWs)   bands (ev):

    -5.8154  -5.8154   1.4209   1.4211   1.4212   1.4212   5.0475   5.0476
     5.0476   5.0476   8.8789   8.8792   9.2437   9.2437   9.2441   9.2441

          k = 0.0000 0.2500 0.2500 (  1298 PWs)   bands (ev):

    -6.9579  -2.5263  -2.5262   0.4180   1.6600   4.0531   4.3764   4.3766
     6.3769   6.3770   7.4166   7.4168   7.9887   9.4002  10.1132  12.6034

          k = 0.0000 0.2500-0.5000 (  1304 PWs)   bands (ev):

    -5.2576  -5.2576  -1.1212  -1.1212   2.9847   2.9848   4.5056   4.5057
     6.8668   6.8671   7.8656   7.8658   7.8856   7.8856  10.4697  10.4700

          k = 0.0000-0.5000-0.5000 (  1308 PWs)   bands (ev):

    -3.6242  -3.6242  -3.6242  -3.6242   4.6824   4.6827   4.6827   4.6828
     5.7689   5.7689   5.7689   5.7691  10.3336  10.3336  10.3339  10.3342

          k = 0.2500 0.2500 0.2500 (  1304 PWs)   bands (ev):

    -6.3883  -2.0659  -2.0659  -2.0659   2.6008   2.6009   2.6009   6.6305
     6.6307   6.6307   6.7882   8.4743   8.4743   8.4744  11.6097  11.6097

          k = 0.2500 0.2500-0.5000 (  1324 PWs)   bands (ev):

    -4.7098  -4.7098  -1.3002  -1.3002   1.0201   1.0202   4.2695   4.2696
     7.0538   7.0540   8.6651   8.6652   9.8239   9.8244  10.1612  10.1615

          k = 0.2500-0.5000-0.5000 (  1312 PWs)   bands (ev):

    -3.1425  -3.1424  -3.1424  -3.1424   1.8378   1.8379   1.8379   1.8380
     8.7813   8.7816   8.7816   8.7818  10.4386  10.4386  10.4388  10.4392

          k =-0.5000-0.5000-0.5000 (  1328 PWs)   bands (ev):

    -2.3135  -2.3135  -2.3135  -2.3134   0.0103   0.0104   0.0104   0.0104
    10.5424  10.5424  10.5424  10.5428  10.5428  10.5428  10.5431  10.5431

     highest occupied level (ev):    13.3364

!    total energy              =     -91.07937396 Ry
     estimated scf accuracy    <       0.00000096 Ry

     The total energy is the sum of the following terms:
     one-electron contribution =      31.91640144 Ry
     hartree contribution      =       7.78122220 Ry
     xc contribution           =     -28.47967393 Ry
     ewald contribution        =    -102.29732367 Ry

     convergence has been achieved in   6 iterations

     Writing all to output data dir ./tmp/diamond.save/ :
     XML data file, charge density, pseudopotentials, collected wavefunctions

     init_run     :      0.29s CPU      0.40s WALL (       1 calls)
     electrons    :      0.84s CPU      0.85s WALL (       1 calls)

     Called by init_run:
     wfcinit      :      0.19s CPU      0.23s WALL (       1 calls)
     potinit      :      0.02s CPU      0.02s WALL (       1 calls)
     hinit0       :      0.08s CPU      0.14s WALL (       1 calls)

     Called by electrons:
     c_bands      :      0.68s CPU      0.68s WALL (       7 calls)
     sum_band     :      0.13s CPU      0.13s WALL (       7 calls)
     v_of_rho     :      0.04s CPU      0.04s WALL (       7 calls)
     mix_rho      :      0.00s CPU      0.01s WALL (       7 calls)

     Called by c_bands:
     init_us_2    :      0.01s CPU      0.01s WALL (     150 calls)
     cegterg      :      0.66s CPU      0.66s WALL (      70 calls)

     Called by *egterg:
     cdiaghg      :      0.04s CPU      0.06s WALL (     199 calls)
     h_psi        :      0.67s CPU      0.68s WALL (     219 calls)
     g_psi        :      0.01s CPU      0.01s WALL (     139 calls)

     Called by h_psi:
     h_psi:calbec :      0.02s CPU      0.02s WALL (     219 calls)
     vloc_psi     :      0.64s CPU      0.64s WALL (     219 calls)
                                        0.00s GPU  (     219 calls)
     add_vuspsi   :      0.01s CPU      0.01s WALL (     219 calls)

     General routines
     calbec       :      0.02s CPU      0.02s WALL (     219 calls)
     fft          :      0.02s CPU      0.08s WALL (      70 calls)
     ffts         :      0.00s CPU      0.00s WALL (       7 calls)
     fftw         :      0.62s CPU      0.63s WALL (    7990 calls)

     Parallel routines

     PWSCF        :      1.31s CPU      1.45s WALL


   This run was terminated on:  12:56:24  22Mar2026            

=------------------------------------------------------------------------------=
   JOB DONE.
=------------------------------------------------------------------------------=
Note: The following floating-point exceptions are signalling: IEEE_DIVIDE_BY_ZERO IEEE_UNDERFLOW_FLAG IEEE_DENORMAL
